
     Program PWSCF v.4.3.2      starts on  2Apr2012 at 10:50:57 

     This program is part of the open-source Quantum ESPRESSO suite
     for quantum simulation of materials; please cite
         "P. Giannozzi et al., J. Phys.:Condens. Matter 21 395502 (2009);
          URL http://www.quantum-espresso.org", 
     in publications or presentations arising from this work. More details at
     http://www.quantum-espresso.org/wiki/index.php/Citing_Quantum-ESPRESSO

     Parallel version (MPI), running on     1 processors

     Current dimensions of program PWSCF are:
     Max number of different atomic species (ntypx) = 10
     Max number of k-points (npk) =  40000
     Max angular momentum in pseudopotentials (lmaxx) =  3
     Waiting for input...
     Reading input from stdin

     Subspace diagonalization in iterative solution of the eigenvalue problem:
     a serial algorithm will be used


     G-vector sticks info
     --------------------
     sticks:   dense  smooth     PW     G-vecs:    dense   smooth      PW
     Sum         211     211     73                 2085     2085     411



     bravais-lattice index     =            2
     lattice parameter (alat)  =      10.1830  a.u.
     unit-cell volume          =     263.9777 (a.u.)^3
     number of atoms/cell      =            2
     number of atomic types    =            1
     number of electrons       =         8.00
     number of Kohn-Sham states=           50
     kinetic-energy cutoff     =      15.0000  Ry
     charge density cutoff     =      60.0000  Ry
     convergence threshold     =      1.0E-08
     mixing beta               =       0.7000
     number of iterations used =            8  plain     mixing
     Exchange-correlation      =  SLA  PZ   NOGX NOGC ( 1 1 0 0 0)
     EXX-fraction              =        0.00

     celldm(1)=  10.183000  celldm(2)=   0.000000  celldm(3)=   0.000000
     celldm(4)=   0.000000  celldm(5)=   0.000000  celldm(6)=   0.000000

     crystal axes: (cart. coord. in units of alat)
               a(1) = (  -0.500000   0.000000   0.500000 )  
               a(2) = (   0.000000   0.500000   0.500000 )  
               a(3) = (  -0.500000   0.500000   0.000000 )  

     reciprocal axes: (cart. coord. in units 2 pi/alat)
               b(1) = ( -1.000000 -1.000000  1.000000 )  
               b(2) = (  1.000000  1.000000  1.000000 )  
               b(3) = ( -1.000000  1.000000 -1.000000 )  


     PseudoPot. # 1 for Si read from file:
     /home/dsangalli/Personal_files/Workshop/2012_Losanna_Cecam/trunk/GW_tutorial/Si/gs/pwscf/psps/Si.vbc.UPF
     MD5 check sum: 7974b67c806a44bbea7c2da40a3c413a
     Pseudo is Norm-conserving, Zval =  4.0
     Generated by new atomic code, or converted to UPF format
     Using radial grid of  431 points,  2 beta functions with: 
                l(1) =   0
                l(2) =   1

     atomic species   valence    mass     pseudopotential
        Si             4.00    28.08600     Si( 1.00)

     24 Sym.Ops. (no inversion)

                                    s                        frac. trans.

      isym =  1     identity                                     

 cryst.   s( 1) = (     1          0          0      )    f =(  0.0000000 )
                  (     0          1          0      )       (  0.0000000 )
                  (     0          0          1      )       (  0.0000000 )

 cart.    s( 1) = (  1.0000000  0.0000000  0.0000000 )    f =(  0.0000000 )
                  (  0.0000000  1.0000000  0.0000000 )       (  0.0000000 )
                  (  0.0000000  0.0000000  1.0000000 )       (  0.0000000 )


      isym =  2     180 deg rotation - cart. axis [0,0,1]        

 cryst.   s( 2) = (     0          1         -1      )    f =(  0.0000000 )
                  (     1          0         -1      )       (  0.0000000 )
                  (     0          0         -1      )       (  0.0000000 )

 cart.    s( 2) = ( -1.0000000  0.0000000  0.0000000 )    f =(  0.0000000 )
                  (  0.0000000 -1.0000000  0.0000000 )       (  0.0000000 )
                  (  0.0000000  0.0000000  1.0000000 )       (  0.0000000 )


      isym =  3     180 deg rotation - cart. axis [0,1,0]        

 cryst.   s( 3) = (    -1          0          0      )    f =(  0.0000000 )
                  (    -1          0          1      )       (  0.0000000 )
                  (    -1          1          0      )       (  0.0000000 )

 cart.    s( 3) = ( -1.0000000  0.0000000  0.0000000 )    f =(  0.0000000 )
                  (  0.0000000  1.0000000  0.0000000 )       (  0.0000000 )
                  (  0.0000000  0.0000000 -1.0000000 )       (  0.0000000 )


      isym =  4     180 deg rotation - cart. axis [1,0,0]        

 cryst.   s( 4) = (     0         -1          1      )    f =(  0.0000000 )
                  (     0         -1          0      )       (  0.0000000 )
                  (     1         -1          0      )       (  0.0000000 )

 cart.    s( 4) = (  1.0000000  0.0000000  0.0000000 )    f =(  0.0000000 )
                  (  0.0000000 -1.0000000  0.0000000 )       (  0.0000000 )
                  (  0.0000000  0.0000000 -1.0000000 )       (  0.0000000 )


      isym =  5     120 deg rotation - cart. axis [-1,-1,-1]     

 cryst.   s( 5) = (    -1          0          1      )    f =(  0.0000000 )
                  (    -1          1          0      )       (  0.0000000 )
                  (    -1          0          0      )       (  0.0000000 )

 cart.    s( 5) = (  0.0000000  1.0000000  0.0000000 )    f =(  0.0000000 )
                  (  0.0000000  0.0000000  1.0000000 )       (  0.0000000 )
                  (  1.0000000  0.0000000  0.0000000 )       (  0.0000000 )


      isym =  6     120 deg rotation - cart. axis [-1,1,1]       

 cryst.   s( 6) = (     0          1          0      )    f =(  0.0000000 )
                  (     0          0          1      )       (  0.0000000 )
                  (     1          0          0      )       (  0.0000000 )

 cart.    s( 6) = (  0.0000000 -1.0000000  0.0000000 )    f =(  0.0000000 )
                  (  0.0000000  0.0000000  1.0000000 )       (  0.0000000 )
                  ( -1.0000000  0.0000000  0.0000000 )       (  0.0000000 )


      isym =  7     120 deg rotation - cart. axis [1,1,-1]       

 cryst.   s( 7) = (     1          0         -1      )    f =(  0.0000000 )
                  (     0          0         -1      )       (  0.0000000 )
                  (     0          1         -1      )       (  0.0000000 )

 cart.    s( 7) = (  0.0000000  1.0000000  0.0000000 )    f =(  0.0000000 )
                  (  0.0000000  0.0000000 -1.0000000 )       (  0.0000000 )
                  ( -1.0000000  0.0000000  0.0000000 )       (  0.0000000 )


      isym =  8     120 deg rotation - cart. axis [1,-1,1]       

 cryst.   s( 8) = (     0         -1          0      )    f =(  0.0000000 )
                  (     1         -1          0      )       (  0.0000000 )
                  (     0         -1          1      )       (  0.0000000 )

 cart.    s( 8) = (  0.0000000 -1.0000000  0.0000000 )    f =(  0.0000000 )
                  (  0.0000000  0.0000000 -1.0000000 )       (  0.0000000 )
                  (  1.0000000  0.0000000  0.0000000 )       (  0.0000000 )


      isym =  9     120 deg rotation - cart. axis [1,1,1]        

 cryst.   s( 9) = (     0          0         -1      )    f =(  0.0000000 )
                  (     0          1         -1      )       (  0.0000000 )
                  (     1          0         -1      )       (  0.0000000 )

 cart.    s( 9) = (  0.0000000  0.0000000  1.0000000 )    f =(  0.0000000 )
                  (  1.0000000  0.0000000  0.0000000 )       (  0.0000000 )
                  (  0.0000000  1.0000000  0.0000000 )       (  0.0000000 )


      isym = 10     120 deg rotation - cart. axis [-1,1,-1]      

 cryst.   s(10) = (    -1          1          0      )    f =(  0.0000000 )
                  (    -1          0          0      )       (  0.0000000 )
                  (    -1          0          1      )       (  0.0000000 )

 cart.    s(10) = (  0.0000000  0.0000000  1.0000000 )    f =(  0.0000000 )
                  ( -1.0000000  0.0000000  0.0000000 )       (  0.0000000 )
                  (  0.0000000 -1.0000000  0.0000000 )       (  0.0000000 )


      isym = 11     120 deg rotation - cart. axis [1,-1,-1]      

 cryst.   s(11) = (     0          0          1      )    f =(  0.0000000 )
                  (     1          0          0      )       (  0.0000000 )
                  (     0          1          0      )       (  0.0000000 )

 cart.    s(11) = (  0.0000000  0.0000000 -1.0000000 )    f =(  0.0000000 )
                  ( -1.0000000  0.0000000  0.0000000 )       (  0.0000000 )
                  (  0.0000000  1.0000000  0.0000000 )       (  0.0000000 )


      isym = 12     120 deg rotation - cart. axis [-1,-1,1]      

 cryst.   s(12) = (     1         -1          0      )    f =(  0.0000000 )
                  (     0         -1          1      )       (  0.0000000 )
                  (     0         -1          0      )       (  0.0000000 )

 cart.    s(12) = (  0.0000000  0.0000000 -1.0000000 )    f =(  0.0000000 )
                  (  1.0000000  0.0000000  0.0000000 )       (  0.0000000 )
                  (  0.0000000 -1.0000000  0.0000000 )       (  0.0000000 )


      isym = 13     inv. 180 deg rotation - cart. axis [1,1,0]   

 cryst.   s(13) = (     0          1          0      )    f =(  0.0000000 )
                  (     1          0          0      )       (  0.0000000 )
                  (     0          0          1      )       (  0.0000000 )

 cart.    s(13) = (  0.0000000 -1.0000000  0.0000000 )    f =(  0.0000000 )
                  ( -1.0000000  0.0000000  0.0000000 )       (  0.0000000 )
                  (  0.0000000  0.0000000  1.0000000 )       (  0.0000000 )


      isym = 14     inv. 180 deg rotation - cart. axis [1,-1,0]  

 cryst.   s(14) = (     1          0         -1      )    f =(  0.0000000 )
                  (     0          1         -1      )       (  0.0000000 )
                  (     0          0         -1      )       (  0.0000000 )

 cart.    s(14) = (  0.0000000  1.0000000  0.0000000 )    f =(  0.0000000 )
                  (  1.0000000  0.0000000  0.0000000 )       (  0.0000000 )
                  (  0.0000000  0.0000000  1.0000000 )       (  0.0000000 )


      isym = 15     inv.  90 deg rotation - cart. axis [0,0,-1]  

 cryst.   s(15) = (     0         -1          0      )    f =(  0.0000000 )
                  (     0         -1          1      )       (  0.0000000 )
                  (     1         -1          0      )       (  0.0000000 )

 cart.    s(15) = (  0.0000000 -1.0000000  0.0000000 )    f =(  0.0000000 )
                  (  1.0000000  0.0000000  0.0000000 )       (  0.0000000 )
                  (  0.0000000  0.0000000 -1.0000000 )       (  0.0000000 )


      isym = 16     inv.  90 deg rotation - cart. axis [0,0,1]   

 cryst.   s(16) = (    -1          0          1      )    f =(  0.0000000 )
                  (    -1          0          0      )       (  0.0000000 )
                  (    -1          1          0      )       (  0.0000000 )

 cart.    s(16) = (  0.0000000  1.0000000  0.0000000 )    f =(  0.0000000 )
                  ( -1.0000000  0.0000000  0.0000000 )       (  0.0000000 )
                  (  0.0000000  0.0000000 -1.0000000 )       (  0.0000000 )


      isym = 17     inv. 180 deg rotation - cart. axis [1,0,1]   

 cryst.   s(17) = (     1          0          0      )    f =(  0.0000000 )
                  (     0          0          1      )       (  0.0000000 )
                  (     0          1          0      )       (  0.0000000 )

 cart.    s(17) = (  0.0000000  0.0000000 -1.0000000 )    f =(  0.0000000 )
                  (  0.0000000  1.0000000  0.0000000 )       (  0.0000000 )
                  ( -1.0000000  0.0000000  0.0000000 )       (  0.0000000 )


      isym = 18     inv. 180 deg rotation - cart. axis [-1,0,1]  

 cryst.   s(18) = (    -1          0          0      )    f =(  0.0000000 )
                  (    -1          1          0      )       (  0.0000000 )
                  (    -1          0          1      )       (  0.0000000 )

 cart.    s(18) = (  0.0000000  0.0000000  1.0000000 )    f =(  0.0000000 )
                  (  0.0000000  1.0000000  0.0000000 )       (  0.0000000 )
                  (  1.0000000  0.0000000  0.0000000 )       (  0.0000000 )


      isym = 19     inv.  90 deg rotation - cart. axis [0,1,0]   

 cryst.   s(19) = (     0         -1          1      )    f =(  0.0000000 )
                  (     1         -1          0      )       (  0.0000000 )
                  (     0         -1          0      )       (  0.0000000 )

 cart.    s(19) = (  0.0000000  0.0000000 -1.0000000 )    f =(  0.0000000 )
                  (  0.0000000 -1.0000000  0.0000000 )       (  0.0000000 )
                  (  1.0000000  0.0000000  0.0000000 )       (  0.0000000 )


      isym = 20     inv.  90 deg rotation - cart. axis [0,-1,0]  

 cryst.   s(20) = (     0          1         -1      )    f =(  0.0000000 )
                  (     0          0         -1      )       (  0.0000000 )
                  (     1          0         -1      )       (  0.0000000 )

 cart.    s(20) = (  0.0000000  0.0000000  1.0000000 )    f =(  0.0000000 )
                  (  0.0000000 -1.0000000  0.0000000 )       (  0.0000000 )
                  ( -1.0000000  0.0000000  0.0000000 )       (  0.0000000 )


      isym = 21     inv. 180 deg rotation - cart. axis [0,1,1]   

 cryst.   s(21) = (     1         -1          0      )    f =(  0.0000000 )
                  (     0         -1          0      )       (  0.0000000 )
                  (     0         -1          1      )       (  0.0000000 )

 cart.    s(21) = (  1.0000000  0.0000000  0.0000000 )    f =(  0.0000000 )
                  (  0.0000000  0.0000000 -1.0000000 )       (  0.0000000 )
                  (  0.0000000 -1.0000000  0.0000000 )       (  0.0000000 )


      isym = 22     inv. 180 deg rotation - cart. axis [0,1,-1]  

 cryst.   s(22) = (     0          0          1      )    f =(  0.0000000 )
                  (     0          1          0      )       (  0.0000000 )
                  (     1          0          0      )       (  0.0000000 )

 cart.    s(22) = (  1.0000000  0.0000000  0.0000000 )    f =(  0.0000000 )
                  (  0.0000000  0.0000000  1.0000000 )       (  0.0000000 )
                  (  0.0000000  1.0000000  0.0000000 )       (  0.0000000 )


      isym = 23     inv.  90 deg rotation - cart. axis [-1,0,0]  

 cryst.   s(23) = (     0          0         -1      )    f =(  0.0000000 )
                  (     1          0         -1      )       (  0.0000000 )
                  (     0          1         -1      )       (  0.0000000 )

 cart.    s(23) = ( -1.0000000  0.0000000  0.0000000 )    f =(  0.0000000 )
                  (  0.0000000  0.0000000 -1.0000000 )       (  0.0000000 )
                  (  0.0000000  1.0000000  0.0000000 )       (  0.0000000 )


      isym = 24     inv.  90 deg rotation - cart. axis [1,0,0]   

 cryst.   s(24) = (    -1          1          0      )    f =(  0.0000000 )
                  (    -1          0          1      )       (  0.0000000 )
                  (    -1          0          0      )       (  0.0000000 )

 cart.    s(24) = ( -1.0000000  0.0000000  0.0000000 )    f =(  0.0000000 )
                  (  0.0000000  0.0000000  1.0000000 )       (  0.0000000 )
                  (  0.0000000 -1.0000000  0.0000000 )       (  0.0000000 )


     point group T_d (-43m) 
     there are  5 classes
     the character table:

       E     8C3   3C2   6S4   6s_d 
A_1    1.00  1.00  1.00  1.00  1.00
A_2    1.00  1.00  1.00 -1.00 -1.00
E      2.00 -1.00  2.00  0.00  0.00
T_1    3.00  0.00 -1.00  1.00 -1.00
T_2    3.00  0.00 -1.00 -1.00  1.00

     the symmetry operations in each class:
     E        1
     3C2      2    3    4
     8C3      5    7    8    6   12    9   10   11
     6s_d    13   14   17   18   21   22
     6S4     15   16   20   19   23   24

   Cartesian axes

     site n.     atom                  positions (alat units)
         1           Si  tau(   1) = (   0.0000000   0.0000000   0.0000000  )
         2           Si  tau(   2) = (   0.2500000   0.2500000   0.2500000  )

   Crystallographic axes

     site n.     atom                  positions (cryst. coord.)
         1           Si  tau(   1) = (  0.0000000  0.0000000  0.0000000  )
         2           Si  tau(   2) = ( -0.2500000  0.7500000 -0.2500000  )

     number of k points=     8
                       cart. coord. in units 2pi/alat
        k(    1) = (   0.0000000   0.0000000   0.0000000), wk =   0.0312500
        k(    2) = (  -0.2500000   0.2500000  -0.2500000), wk =   0.2500000
        k(    3) = (   0.5000000  -0.5000000   0.5000000), wk =   0.1250000
        k(    4) = (   0.0000000   0.5000000   0.0000000), wk =   0.1875000
        k(    5) = (   0.7500000  -0.2500000   0.7500000), wk =   0.7500000
        k(    6) = (   0.5000000   0.0000000   0.5000000), wk =   0.3750000
        k(    7) = (   0.0000000  -1.0000000   0.0000000), wk =   0.0937500
        k(    8) = (  -0.5000000  -1.0000000   0.0000000), wk =   0.1875000

                       cryst. coord.
        k(    1) = (   0.0000000   0.0000000   0.0000000), wk =   0.0312500
        k(    2) = (   0.0000000   0.0000000   0.2500000), wk =   0.2500000
        k(    3) = (   0.0000000   0.0000000  -0.5000000), wk =   0.1250000
        k(    4) = (   0.0000000   0.2500000   0.2500000), wk =   0.1875000
        k(    5) = (   0.0000000   0.2500000  -0.5000000), wk =   0.7500000
        k(    6) = (   0.0000000   0.2500000  -0.2500000), wk =   0.3750000
        k(    7) = (   0.0000000  -0.5000000  -0.5000000), wk =   0.0937500
        k(    8) = (   0.2500000  -0.5000000  -0.2500000), wk =   0.1875000

     Dense  grid:     2085 G-vectors     FFT dimensions: (  18,  18,  18)

     Largest allocated arrays     est. size (Mb)     dimensions
        Kohn-Sham Wavefunctions         0.20 Mb     (    268,   50)
        NL pseudopotentials             0.03 Mb     (    268,    8)
        Each V/rho on FFT grid          0.09 Mb     (   5832)
        Each G-vector array             0.02 Mb     (   2085)
        G-vector shells                 0.00 Mb     (     54)
     Largest temporary arrays     est. size (Mb)     dimensions
        Auxiliary wavefunctions         0.82 Mb     (    268,  200)
        Each subspace H/S matrix        0.61 Mb     ( 200, 200)
        Each <psi_i|beta_j> matrix      0.01 Mb     (      8,   50)
        Arrays for rho mixing           0.71 Mb     (   5832,   8)

     Initial potential from superposition of free atoms

     starting charge    7.99901, renormalised to    8.00000
     Starting wfc are    8 atomic +   42 random wfc

     total cpu time spent up to now is        0.9 secs

     per-process dynamical memory:     4.6 Mb

     Self-consistent Calculation

     iteration #  1     ecut=    15.00 Ry     beta=0.70
     Davidson diagonalization with overlap
     ethr =  1.00E-02,  avg # of iterations =  4.0

     Threshold (ethr) on eigenvalues was too large:
     Diagonalizing with lowered threshold

     Davidson diagonalization with overlap
     ethr =  8.60E-04,  avg # of iterations =  1.0

     total cpu time spent up to now is        5.8 secs

     total energy              =     -15.81612363 Ry
     Harris-Foulkes estimate   =     -15.84012483 Ry
     estimated scf accuracy    <       0.06879574 Ry

     iteration #  2     ecut=    15.00 Ry     beta=0.70
     Davidson diagonalization with overlap
     ethr =  8.60E-04,  avg # of iterations =  1.3

     total cpu time spent up to now is        7.1 secs

     total energy              =     -15.82027307 Ry
     Harris-Foulkes estimate   =     -15.82050799 Ry
     estimated scf accuracy    <       0.00191528 Ry

     iteration #  3     ecut=    15.00 Ry     beta=0.70
     Davidson diagonalization with overlap
     ethr =  2.39E-05,  avg # of iterations =  3.1

     total cpu time spent up to now is        8.8 secs

     total energy              =     -15.82028439 Ry
     Harris-Foulkes estimate   =     -15.82028978 Ry
     estimated scf accuracy    <       0.00006240 Ry

     iteration #  4     ecut=    15.00 Ry     beta=0.70
     Davidson diagonalization with overlap
     ethr =  7.80E-07,  avg # of iterations =  3.9

     total cpu time spent up to now is       10.7 secs

     total energy              =     -15.82028487 Ry
     Harris-Foulkes estimate   =     -15.82028485 Ry
     estimated scf accuracy    <       0.00000002 Ry

     iteration #  5     ecut=    15.00 Ry     beta=0.70
     Davidson diagonalization with overlap
     ethr =  2.89E-10,  avg # of iterations =  4.4

     total cpu time spent up to now is       13.6 secs

     End of self-consistent calculation

          k = 0.0000 0.0000 0.0000 (   259 PWs)   bands (ev):

    -5.7277   6.3571   6.3571   6.3571   8.9137   8.9137   8.9137   9.8887
    14.1161  14.2534  14.2534  17.6062  17.6062  17.6062  21.5064  29.8112
    29.8112  29.8112  31.2508  31.2508  32.2096  32.2096  32.2096  36.1938
    36.1938  36.1938  41.0632  41.8529  41.8529  41.8529  45.7723  45.7723
    47.8579  47.8579  48.0499  48.4485  48.4485  48.4485  49.3111  50.9185
    50.9185  50.9185  51.8944  51.8944  51.8944  52.1884  52.1884  52.1884
    53.4910  53.4910

     occupation numbers 
     0.0313   0.0313   0.0313   0.0313   0.0000   0.0000   0.0000   0.0000
     0.0000   0.0000   0.0000   0.0000   0.0000   0.0000   0.0000   0.0000
     0.0000   0.0000   0.0000   0.0000   0.0000   0.0000   0.0000   0.0000
     0.0000   0.0000   0.0000   0.0000   0.0000   0.0000   0.0000   0.0000
     0.0000   0.0000   0.0000   0.0000   0.0000   0.0000   0.0000   0.0000
     0.0000   0.0000   0.0000   0.0000   0.0000   0.0000   0.0000   0.0000
     0.0000   0.0000

          k =-0.2500 0.2500-0.2500 (   268 PWs)   bands (ev):

    -4.9248   2.3759   5.5670   5.5670   8.4258   9.8757   9.8757  13.3117
    13.6569  13.6569  15.2189  18.1411  21.1701  21.1701  24.4255  24.4361
    24.4361  26.3307  30.7824  30.7824  33.2236  33.2236  34.5690  35.4957
    36.9150  38.6404  38.6404  40.3517  40.3517  41.3467  41.3467  43.5876
    44.9112  45.2166  45.2166  45.8658  46.3813  47.9845  48.0678  48.0678
    50.7981  50.7981  50.8852  54.0388  54.0388  54.9839  56.1025  56.4509
    56.4509  58.1054

     occupation numbers 
     0.2500   0.2500   0.2500   0.2500   0.0000   0.0000   0.0000   0.0000
     0.0000   0.0000   0.0000   0.0000   0.0000   0.0000   0.0000   0.0000
     0.0000   0.0000   0.0000   0.0000   0.0000   0.0000   0.0000   0.0000
     0.0000   0.0000   0.0000   0.0000   0.0000   0.0000   0.0000   0.0000
     0.0000   0.0000   0.0000   0.0000   0.0000   0.0000   0.0000   0.0000
     0.0000   0.0000   0.0000   0.0000   0.0000   0.0000   0.0000   0.0000
     0.0000   0.0000

          k = 0.5000-0.5000 0.5000 (   266 PWs)   bands (ev):

    -3.3334  -0.7513   5.1209   5.1209   7.9529   9.6865   9.6865  13.9167
    17.1345  17.1345  17.6856  17.8413  17.8413  19.3731  25.8337  26.4245
    28.2584  28.2584  28.4988  28.4988  32.1472  33.1808  33.1808  34.0408
    34.0408  34.6986  38.0501  38.8216  39.0081  39.0081  39.6806  39.6806
    42.0361  43.3323  47.7490  47.8033  47.8033  49.4407  49.4407  49.8276
    50.8818  54.2895  54.2895  55.7526  55.7558  55.7558  59.0036  59.9678
    59.9678  60.8164

     occupation numbers 
     0.1250   0.1250   0.1250   0.1250   0.0000   0.0000   0.0000   0.0000
     0.0000   0.0000   0.0000   0.0000   0.0000   0.0000   0.0000   0.0000
     0.0000   0.0000   0.0000   0.0000   0.0000   0.0000   0.0000   0.0000
     0.0000   0.0000   0.0000   0.0000   0.0000   0.0000   0.0000   0.0000
     0.0000   0.0000   0.0000   0.0000   0.0000   0.0000   0.0000   0.0000
     0.0000   0.0000   0.0000   0.0000   0.0000   0.0000   0.0000   0.0000
     0.0000   0.0000

          k = 0.0000 0.5000 0.0000 (   258 PWs)   bands (ev):

    -4.6304   2.8688   4.4020   4.4020   7.4119   9.4599  12.1920  12.1920
    14.5304  15.4957  17.6788  19.4601  19.4601  20.0985  23.9103  23.9103
    25.0975  26.7979  27.4675  31.5217  32.9061  34.0685  34.0685  36.1471
    36.1471  36.4803  36.7922  41.2254  41.8719  42.5128  42.5128  44.1467
    44.2007  44.2007  44.9324  45.6067  47.7176  47.7176  48.4373  50.6602
    50.6602  50.8809  51.0424  53.6393  53.6954  54.2052  54.2052  56.3060
    57.4586  58.1093

     occupation numbers 
     0.1875   0.1875   0.1875   0.1875   0.0000   0.0000   0.0000   0.0000
     0.0000   0.0000   0.0000   0.0000   0.0000   0.0000   0.0000   0.0000
     0.0000   0.0000   0.0000   0.0000   0.0000   0.0000   0.0000   0.0000
     0.0000   0.0000   0.0000   0.0000   0.0000   0.0000   0.0000   0.0000
     0.0000   0.0000   0.0000   0.0000   0.0000   0.0000   0.0000   0.0000
     0.0000   0.0000   0.0000   0.0000   0.0000   0.0000   0.0000   0.0000
     0.0000   0.0000

          k = 0.7500-0.2500 0.7500 (   254 PWs)   bands (ev):

    -2.9484  -0.0715   2.7083   4.0795   7.8112  10.7959  12.1756  12.3483
    16.6180  17.0896  18.7731  19.1443  19.3950  23.2999  24.3792  25.1945
    25.9456  26.1089  26.4537  29.3557  30.4293  31.8688  32.0438  34.2267
    35.8972  36.0810  36.1130  37.2501  38.8025  41.1121  41.3873  43.0145
    43.4235  44.4171  45.4215  46.8129  48.8526  49.7281  51.5764  51.8255
    52.1953  52.8495  53.4276  53.8012  54.9762  55.6782  56.2275  57.8528
    58.8460  59.3492

     occupation numbers 
     0.7500   0.7500   0.7500   0.7500   0.0000   0.0000   0.0000   0.0000
     0.0000   0.0000   0.0000   0.0000   0.0000   0.0000   0.0000   0.0000
     0.0000   0.0000   0.0000   0.0000   0.0000   0.0000   0.0000   0.0000
     0.0000   0.0000   0.0000   0.0000   0.0000   0.0000   0.0000   0.0000
     0.0000   0.0000   0.0000   0.0000   0.0000   0.0000   0.0000   0.0000
     0.0000   0.0000   0.0000   0.0000   0.0000   0.0000   0.0000   0.0000
     0.0000   0.0000

          k = 0.5000 0.0000 0.5000 (   256 PWs)   bands (ev):

    -3.6428   0.8550   2.4645   4.9865   8.7954  11.1861  11.5198  12.5355
    12.8870  16.0662  19.0020  19.7613  19.8029  23.1188  23.7708  23.9705
    25.3508  27.7655  28.2965  30.5689  31.1929  32.0419  33.2304  33.7289
    33.9631  36.0394  37.1870  37.8471  40.8400  41.2199  42.7505  43.3218
    44.2168  44.2636  44.9359  45.3031  45.7123  46.9334  50.1730  50.9682
    50.9717  53.3983  55.3730  55.4288  56.2148  56.9804  57.5646  57.7767
    58.4742  59.0863

     occupation numbers 
     0.3750   0.3750   0.3750   0.3750   0.0000   0.0000   0.0000   0.0000
     0.0000   0.0000   0.0000   0.0000   0.0000   0.0000   0.0000   0.0000
     0.0000   0.0000   0.0000   0.0000   0.0000   0.0000   0.0000   0.0000
     0.0000   0.0000   0.0000   0.0000   0.0000   0.0000   0.0000   0.0000
     0.0000   0.0000   0.0000   0.0000   0.0000   0.0000   0.0000   0.0000
     0.0000   0.0000   0.0000   0.0000   0.0000   0.0000   0.0000   0.0000
     0.0000   0.0000

          k = 0.0000-1.0000 0.0000 (   254 PWs)   bands (ev):

    -1.4980  -1.4980   3.4127   3.4127   6.9649   6.9649  16.5725  16.5725
    17.5762  17.5762  19.1716  19.1716  19.4196  19.4197  25.3472  25.3472
    26.1736  26.1736  26.8208  26.8208  27.7616  27.7617  32.2927  32.2927
    36.2935  36.2935  40.7047  40.7049  40.7988  40.7988  42.9383  42.9383
    43.1408  43.1415  46.4741  46.4741  47.7321  47.7321  48.4258  48.4259
    52.4322  52.4322  54.1229  54.1250  56.5184  56.5184  58.1087  58.1087
    61.5478  61.5482

     occupation numbers 
     0.0938   0.0938   0.0938   0.0938   0.0000   0.0000   0.0000   0.0000
     0.0000   0.0000   0.0000   0.0000   0.0000   0.0000   0.0000   0.0000
     0.0000   0.0000   0.0000   0.0000   0.0000   0.0000   0.0000   0.0000
     0.0000   0.0000   0.0000   0.0000   0.0000   0.0000   0.0000   0.0000
     0.0000   0.0000   0.0000   0.0000   0.0000   0.0000   0.0000   0.0000
     0.0000   0.0000   0.0000   0.0000   0.0000   0.0000   0.0000   0.0000
     0.0000   0.0000

          k =-0.5000-1.0000 0.0000 (   264 PWs)   bands (ev):

    -1.3246  -1.3246   2.3493   2.3493  10.5894  10.5894  11.4108  11.4108
    17.1004  17.1004  19.5608  19.5608  22.8951  22.8952  24.9452  24.9453
    25.5124  25.5124  26.4556  26.4556  30.2490  30.2490  34.1336  34.1336
    34.3042  34.3042  35.2922  35.2925  39.5583  39.5583  43.3678  43.3679
    44.8301  44.8301  46.9584  46.9587  49.4401  49.4417  50.2294  50.2294
    52.6537  52.6542  54.4613  54.4613  55.8209  55.8209  56.6126  56.6128
    61.3399  61.3406

     occupation numbers 
     0.1875   0.1875   0.1875   0.1875   0.0000   0.0000   0.0000   0.0000
     0.0000   0.0000   0.0000   0.0000   0.0000   0.0000   0.0000   0.0000
     0.0000   0.0000   0.0000   0.0000   0.0000   0.0000   0.0000   0.0000
     0.0000   0.0000   0.0000   0.0000   0.0000   0.0000   0.0000   0.0000
     0.0000   0.0000   0.0000   0.0000   0.0000   0.0000   0.0000   0.0000
     0.0000   0.0000   0.0000   0.0000   0.0000   0.0000   0.0000   0.0000
     0.0000   0.0000

     highest occupied, lowest unoccupied level (ev):     6.3571    6.9649

!    total energy              =     -15.82028487 Ry
     Harris-Foulkes estimate   =     -15.82028487 Ry
     estimated scf accuracy    <          1.0E-10 Ry

     The total energy is the sum of the following terms:

     one-electron contribution =       4.84208887 Ry
     hartree contribution      =       1.09248133 Ry
     xc contribution           =      -4.82688319 Ry
     ewald contribution        =     -16.92797188 Ry

     convergence has been achieved in   5 iterations

     Forces acting on atoms (Ry/au):

     atom    1 type  1   force =     0.00000000   -0.00000000    0.00000000
     atom    2 type  1   force =    -0.00000000    0.00000000   -0.00000000
     The non-local contrib.  to forces
     atom    1 type  1   force =    -0.00000000    0.00000000   -0.00000000
     atom    2 type  1   force =    -0.00000000    0.00000000   -0.00000000
     The ionic contribution  to forces
     atom    1 type  1   force =    -0.00000000   -0.00000000   -0.00000000
     atom    2 type  1   force =    -0.00000000    0.00000000   -0.00000000
     The local contribution  to forces
     atom    1 type  1   force =     0.00000000   -0.00000000    0.00000000
     atom    2 type  1   force =    -0.00000000    0.00000000    0.00000000
     The core correction contribution to forces
     atom    1 type  1   force =     0.00000000    0.00000000    0.00000000
     atom    2 type  1   force =     0.00000000    0.00000000    0.00000000
     The Hubbard contrib.    to forces
     atom    1 type  1   force =     0.00000000    0.00000000    0.00000000
     atom    2 type  1   force =     0.00000000    0.00000000    0.00000000
     The SCF correction term to forces
     atom    1 type  1   force =    -0.00000000    0.00000000   -0.00000000
     atom    2 type  1   force =     0.00000000    0.00000000    0.00000000

     Total force =     0.000000     Total SCF correction =     0.000000


     entering subroutine stress ...

          total   stress  (Ry/bohr**3)                   (kbar)     P=   -9.34
  -0.00006347  -0.00000000   0.00000000         -9.34     -0.00      0.00
  -0.00000000  -0.00006347   0.00000000         -0.00     -9.34      0.00
   0.00000000   0.00000000  -0.00006347          0.00      0.00     -9.34

     kinetic stress (kbar)   2316.24      0.00      0.00
                                0.00   2316.24      0.00
                                0.00      0.00   2316.24

     local   stress (kbar)  -1432.11     -0.00     -0.00
                               -0.00  -1432.11     -0.00
                               -0.00     -0.00  -1432.11

     nonloc. stress (kbar)   2865.72      0.00      0.00
                                0.00   2865.72     -0.00
                                0.00     -0.00   2865.72

     hartree stress (kbar)    202.93     -0.00     -0.00
                               -0.00    202.93      0.00
                               -0.00      0.00    202.93

     exc-cor stress (kbar)   -817.68      0.00      0.00
                                0.00   -817.68      0.00
                                0.00      0.00   -817.68

     corecor stress (kbar)      0.00      0.00      0.00
                                0.00      0.00      0.00
                                0.00      0.00      0.00

     ewald   stress (kbar)  -3144.45      0.00      0.00
                                0.00  -3144.45      0.00
                                0.00      0.00  -3144.45

     hubbard stress (kbar)      0.00      0.00      0.00
                                0.00      0.00      0.00
                                0.00      0.00      0.00

     london  stress (kbar)      0.00      0.00      0.00
                                0.00      0.00      0.00
                                0.00      0.00      0.00

     dft-nl  stress (kbar)      0.00      0.00      0.00
                                0.00      0.00      0.00
                                0.00      0.00      0.00



     Writing output data file Si_e15.0_k4_nb50_gamma.save

     init_run     :      0.48s CPU      0.67s WALL (       1 calls)
     electrons    :     11.49s CPU     12.74s WALL (       1 calls)
     forces       :      0.03s CPU      0.03s WALL (       1 calls)
     stress       :      0.08s CPU      0.09s WALL (       1 calls)

     Called by init_run:
     wfcinit      :      0.40s CPU      0.53s WALL (       1 calls)
     potinit      :      0.01s CPU      0.01s WALL (       1 calls)

     Called by electrons:
     c_bands      :     10.60s CPU     11.78s WALL (       6 calls)
     sum_band     :      0.86s CPU      0.90s WALL (       6 calls)
     v_of_rho     :      0.01s CPU      0.01s WALL (       6 calls)
     v_h          :      0.00s CPU      0.00s WALL (       6 calls)
     v_xc         :      0.00s CPU      0.01s WALL (       6 calls)
     mix_rho      :      0.01s CPU      0.01s WALL (       6 calls)

     Called by c_bands:
     init_us_2    :      0.03s CPU      0.03s WALL (     120 calls)
     cegterg      :     10.55s CPU     11.70s WALL (      48 calls)

     Called by sum_band:

     Called by *egterg:
     h_psi        :      4.45s CPU      4.94s WALL (     197 calls)
     g_psi        :      0.03s CPU      0.04s WALL (     141 calls)
     cdiaghg      :      4.18s CPU      4.52s WALL (     181 calls)
     cegterg:over :      0.86s CPU      1.02s WALL (     141 calls)
     cegterg:upda :      0.53s CPU      0.64s WALL (     141 calls)
     cegterg:last :      0.34s CPU      0.38s WALL (      56 calls)

     Called by h_psi:
     h_psi:vloc   :      4.18s CPU      4.62s WALL (     197 calls)
     h_psi:vnl    :      0.23s CPU      0.29s WALL (     197 calls)
     add_vuspsi   :      0.09s CPU      0.12s WALL (     197 calls)

     General routines
     calbec       :      0.15s CPU      0.18s WALL (     213 calls)
     fft          :      0.02s CPU      0.07s WALL (      30 calls)
     fftw         :      4.47s CPU      4.88s WALL (   15308 calls)
     davcio       :      0.04s CPU      0.07s WALL (     176 calls)

     Parallel routines

     PWSCF        :    12.26s CPU        13.96s WALL


   This run was terminated on:  10:51:11   2Apr2012            

=------------------------------------------------------------------------------=
   JOB DONE.
=------------------------------------------------------------------------------=
