
     Program PWSCF v.4.3.2      starts on  7Apr2012 at 16:53:44 

     This program is part of the open-source Quantum ESPRESSO suite
     for quantum simulation of materials; please cite
         "P. Giannozzi et al., J. Phys.:Condens. Matter 21 395502 (2009);
          URL http://www.quantum-espresso.org", 
     in publications or presentations arising from this work. More details at
     http://www.quantum-espresso.org/wiki/index.php/Citing_Quantum-ESPRESSO

     Parallel version (MPI), running on     1 processors

     Current dimensions of program PWSCF are:
     Max number of different atomic species (ntypx) = 10
     Max number of k-points (npk) =  40000
     Max angular momentum in pseudopotentials (lmaxx) =  3
     Waiting for input...
     Reading input from stdin

     Subspace diagonalization in iterative solution of the eigenvalue problem:
     a serial algorithm will be used


     G-vector sticks info
     --------------------
     sticks:   dense  smooth     PW     G-vecs:    dense   smooth      PW
     Sum         211     211     85                 2085     2085     459



     bravais-lattice index     =            2
     lattice parameter (alat)  =      10.1830  a.u.
     unit-cell volume          =     263.9777 (a.u.)^3
     number of atoms/cell      =            2
     number of atomic types    =            1
     number of electrons       =         8.00
     number of Kohn-Sham states=           50
     kinetic-energy cutoff     =      15.0000  Ry
     charge density cutoff     =      60.0000  Ry
     convergence threshold     =      1.0E-08
     mixing beta               =       0.7000
     number of iterations used =            8  plain     mixing
     Exchange-correlation      =  SLA  PZ   NOGX NOGC ( 1 1 0 0 0)
     EXX-fraction              =        0.00

     celldm(1)=  10.183000  celldm(2)=   0.000000  celldm(3)=   0.000000
     celldm(4)=   0.000000  celldm(5)=   0.000000  celldm(6)=   0.000000

     crystal axes: (cart. coord. in units of alat)
               a(1) = (  -0.500000   0.000000   0.500000 )  
               a(2) = (   0.000000   0.500000   0.500000 )  
               a(3) = (  -0.500000   0.500000   0.000000 )  

     reciprocal axes: (cart. coord. in units 2 pi/alat)
               b(1) = ( -1.000000 -1.000000  1.000000 )  
               b(2) = (  1.000000  1.000000  1.000000 )  
               b(3) = ( -1.000000  1.000000 -1.000000 )  


     PseudoPot. # 1 for Si read from file:
     /home/dsangalli/Personal_files/Workshop/2012_Losanna_Cecam/trunk/GW_tutorial/Si/gs/pwscf/psps/Si.vbc.UPF
     MD5 check sum: 7974b67c806a44bbea7c2da40a3c413a
     Pseudo is Norm-conserving, Zval =  4.0
     Generated by new atomic code, or converted to UPF format
     Using radial grid of  431 points,  2 beta functions with: 
                l(1) =   0
                l(2) =   1

     atomic species   valence    mass     pseudopotential
        Si             4.00    28.08600     Si( 1.00)

     24 Sym.Ops. (no inversion)

                                    s                        frac. trans.

      isym =  1     identity                                     

 cryst.   s( 1) = (     1          0          0      )    f =(  0.0000000 )
                  (     0          1          0      )       (  0.0000000 )
                  (     0          0          1      )       (  0.0000000 )

 cart.    s( 1) = (  1.0000000  0.0000000  0.0000000 )    f =(  0.0000000 )
                  (  0.0000000  1.0000000  0.0000000 )       (  0.0000000 )
                  (  0.0000000  0.0000000  1.0000000 )       (  0.0000000 )


      isym =  2     180 deg rotation - cart. axis [0,0,1]        

 cryst.   s( 2) = (     0          1         -1      )    f =(  0.0000000 )
                  (     1          0         -1      )       (  0.0000000 )
                  (     0          0         -1      )       (  0.0000000 )

 cart.    s( 2) = ( -1.0000000  0.0000000  0.0000000 )    f =(  0.0000000 )
                  (  0.0000000 -1.0000000  0.0000000 )       (  0.0000000 )
                  (  0.0000000  0.0000000  1.0000000 )       (  0.0000000 )


      isym =  3     180 deg rotation - cart. axis [0,1,0]        

 cryst.   s( 3) = (    -1          0          0      )    f =(  0.0000000 )
                  (    -1          0          1      )       (  0.0000000 )
                  (    -1          1          0      )       (  0.0000000 )

 cart.    s( 3) = ( -1.0000000  0.0000000  0.0000000 )    f =(  0.0000000 )
                  (  0.0000000  1.0000000  0.0000000 )       (  0.0000000 )
                  (  0.0000000  0.0000000 -1.0000000 )       (  0.0000000 )


      isym =  4     180 deg rotation - cart. axis [1,0,0]        

 cryst.   s( 4) = (     0         -1          1      )    f =(  0.0000000 )
                  (     0         -1          0      )       (  0.0000000 )
                  (     1         -1          0      )       (  0.0000000 )

 cart.    s( 4) = (  1.0000000  0.0000000  0.0000000 )    f =(  0.0000000 )
                  (  0.0000000 -1.0000000  0.0000000 )       (  0.0000000 )
                  (  0.0000000  0.0000000 -1.0000000 )       (  0.0000000 )


      isym =  5     120 deg rotation - cart. axis [-1,-1,-1]     

 cryst.   s( 5) = (    -1          0          1      )    f =(  0.0000000 )
                  (    -1          1          0      )       (  0.0000000 )
                  (    -1          0          0      )       (  0.0000000 )

 cart.    s( 5) = (  0.0000000  1.0000000  0.0000000 )    f =(  0.0000000 )
                  (  0.0000000  0.0000000  1.0000000 )       (  0.0000000 )
                  (  1.0000000  0.0000000  0.0000000 )       (  0.0000000 )


      isym =  6     120 deg rotation - cart. axis [-1,1,1]       

 cryst.   s( 6) = (     0          1          0      )    f =(  0.0000000 )
                  (     0          0          1      )       (  0.0000000 )
                  (     1          0          0      )       (  0.0000000 )

 cart.    s( 6) = (  0.0000000 -1.0000000  0.0000000 )    f =(  0.0000000 )
                  (  0.0000000  0.0000000  1.0000000 )       (  0.0000000 )
                  ( -1.0000000  0.0000000  0.0000000 )       (  0.0000000 )


      isym =  7     120 deg rotation - cart. axis [1,1,-1]       

 cryst.   s( 7) = (     1          0         -1      )    f =(  0.0000000 )
                  (     0          0         -1      )       (  0.0000000 )
                  (     0          1         -1      )       (  0.0000000 )

 cart.    s( 7) = (  0.0000000  1.0000000  0.0000000 )    f =(  0.0000000 )
                  (  0.0000000  0.0000000 -1.0000000 )       (  0.0000000 )
                  ( -1.0000000  0.0000000  0.0000000 )       (  0.0000000 )


      isym =  8     120 deg rotation - cart. axis [1,-1,1]       

 cryst.   s( 8) = (     0         -1          0      )    f =(  0.0000000 )
                  (     1         -1          0      )       (  0.0000000 )
                  (     0         -1          1      )       (  0.0000000 )

 cart.    s( 8) = (  0.0000000 -1.0000000  0.0000000 )    f =(  0.0000000 )
                  (  0.0000000  0.0000000 -1.0000000 )       (  0.0000000 )
                  (  1.0000000  0.0000000  0.0000000 )       (  0.0000000 )


      isym =  9     120 deg rotation - cart. axis [1,1,1]        

 cryst.   s( 9) = (     0          0         -1      )    f =(  0.0000000 )
                  (     0          1         -1      )       (  0.0000000 )
                  (     1          0         -1      )       (  0.0000000 )

 cart.    s( 9) = (  0.0000000  0.0000000  1.0000000 )    f =(  0.0000000 )
                  (  1.0000000  0.0000000  0.0000000 )       (  0.0000000 )
                  (  0.0000000  1.0000000  0.0000000 )       (  0.0000000 )


      isym = 10     120 deg rotation - cart. axis [-1,1,-1]      

 cryst.   s(10) = (    -1          1          0      )    f =(  0.0000000 )
                  (    -1          0          0      )       (  0.0000000 )
                  (    -1          0          1      )       (  0.0000000 )

 cart.    s(10) = (  0.0000000  0.0000000  1.0000000 )    f =(  0.0000000 )
                  ( -1.0000000  0.0000000  0.0000000 )       (  0.0000000 )
                  (  0.0000000 -1.0000000  0.0000000 )       (  0.0000000 )


      isym = 11     120 deg rotation - cart. axis [1,-1,-1]      

 cryst.   s(11) = (     0          0          1      )    f =(  0.0000000 )
                  (     1          0          0      )       (  0.0000000 )
                  (     0          1          0      )       (  0.0000000 )

 cart.    s(11) = (  0.0000000  0.0000000 -1.0000000 )    f =(  0.0000000 )
                  ( -1.0000000  0.0000000  0.0000000 )       (  0.0000000 )
                  (  0.0000000  1.0000000  0.0000000 )       (  0.0000000 )


      isym = 12     120 deg rotation - cart. axis [-1,-1,1]      

 cryst.   s(12) = (     1         -1          0      )    f =(  0.0000000 )
                  (     0         -1          1      )       (  0.0000000 )
                  (     0         -1          0      )       (  0.0000000 )

 cart.    s(12) = (  0.0000000  0.0000000 -1.0000000 )    f =(  0.0000000 )
                  (  1.0000000  0.0000000  0.0000000 )       (  0.0000000 )
                  (  0.0000000 -1.0000000  0.0000000 )       (  0.0000000 )


      isym = 13     inv. 180 deg rotation - cart. axis [1,1,0]   

 cryst.   s(13) = (     0          1          0      )    f =(  0.0000000 )
                  (     1          0          0      )       (  0.0000000 )
                  (     0          0          1      )       (  0.0000000 )

 cart.    s(13) = (  0.0000000 -1.0000000  0.0000000 )    f =(  0.0000000 )
                  ( -1.0000000  0.0000000  0.0000000 )       (  0.0000000 )
                  (  0.0000000  0.0000000  1.0000000 )       (  0.0000000 )


      isym = 14     inv. 180 deg rotation - cart. axis [1,-1,0]  

 cryst.   s(14) = (     1          0         -1      )    f =(  0.0000000 )
                  (     0          1         -1      )       (  0.0000000 )
                  (     0          0         -1      )       (  0.0000000 )

 cart.    s(14) = (  0.0000000  1.0000000  0.0000000 )    f =(  0.0000000 )
                  (  1.0000000  0.0000000  0.0000000 )       (  0.0000000 )
                  (  0.0000000  0.0000000  1.0000000 )       (  0.0000000 )


      isym = 15     inv.  90 deg rotation - cart. axis [0,0,-1]  

 cryst.   s(15) = (     0         -1          0      )    f =(  0.0000000 )
                  (     0         -1          1      )       (  0.0000000 )
                  (     1         -1          0      )       (  0.0000000 )

 cart.    s(15) = (  0.0000000 -1.0000000  0.0000000 )    f =(  0.0000000 )
                  (  1.0000000  0.0000000  0.0000000 )       (  0.0000000 )
                  (  0.0000000  0.0000000 -1.0000000 )       (  0.0000000 )


      isym = 16     inv.  90 deg rotation - cart. axis [0,0,1]   

 cryst.   s(16) = (    -1          0          1      )    f =(  0.0000000 )
                  (    -1          0          0      )       (  0.0000000 )
                  (    -1          1          0      )       (  0.0000000 )

 cart.    s(16) = (  0.0000000  1.0000000  0.0000000 )    f =(  0.0000000 )
                  ( -1.0000000  0.0000000  0.0000000 )       (  0.0000000 )
                  (  0.0000000  0.0000000 -1.0000000 )       (  0.0000000 )


      isym = 17     inv. 180 deg rotation - cart. axis [1,0,1]   

 cryst.   s(17) = (     1          0          0      )    f =(  0.0000000 )
                  (     0          0          1      )       (  0.0000000 )
                  (     0          1          0      )       (  0.0000000 )

 cart.    s(17) = (  0.0000000  0.0000000 -1.0000000 )    f =(  0.0000000 )
                  (  0.0000000  1.0000000  0.0000000 )       (  0.0000000 )
                  ( -1.0000000  0.0000000  0.0000000 )       (  0.0000000 )


      isym = 18     inv. 180 deg rotation - cart. axis [-1,0,1]  

 cryst.   s(18) = (    -1          0          0      )    f =(  0.0000000 )
                  (    -1          1          0      )       (  0.0000000 )
                  (    -1          0          1      )       (  0.0000000 )

 cart.    s(18) = (  0.0000000  0.0000000  1.0000000 )    f =(  0.0000000 )
                  (  0.0000000  1.0000000  0.0000000 )       (  0.0000000 )
                  (  1.0000000  0.0000000  0.0000000 )       (  0.0000000 )


      isym = 19     inv.  90 deg rotation - cart. axis [0,1,0]   

 cryst.   s(19) = (     0         -1          1      )    f =(  0.0000000 )
                  (     1         -1          0      )       (  0.0000000 )
                  (     0         -1          0      )       (  0.0000000 )

 cart.    s(19) = (  0.0000000  0.0000000 -1.0000000 )    f =(  0.0000000 )
                  (  0.0000000 -1.0000000  0.0000000 )       (  0.0000000 )
                  (  1.0000000  0.0000000  0.0000000 )       (  0.0000000 )


      isym = 20     inv.  90 deg rotation - cart. axis [0,-1,0]  

 cryst.   s(20) = (     0          1         -1      )    f =(  0.0000000 )
                  (     0          0         -1      )       (  0.0000000 )
                  (     1          0         -1      )       (  0.0000000 )

 cart.    s(20) = (  0.0000000  0.0000000  1.0000000 )    f =(  0.0000000 )
                  (  0.0000000 -1.0000000  0.0000000 )       (  0.0000000 )
                  ( -1.0000000  0.0000000  0.0000000 )       (  0.0000000 )


      isym = 21     inv. 180 deg rotation - cart. axis [0,1,1]   

 cryst.   s(21) = (     1         -1          0      )    f =(  0.0000000 )
                  (     0         -1          0      )       (  0.0000000 )
                  (     0         -1          1      )       (  0.0000000 )

 cart.    s(21) = (  1.0000000  0.0000000  0.0000000 )    f =(  0.0000000 )
                  (  0.0000000  0.0000000 -1.0000000 )       (  0.0000000 )
                  (  0.0000000 -1.0000000  0.0000000 )       (  0.0000000 )


      isym = 22     inv. 180 deg rotation - cart. axis [0,1,-1]  

 cryst.   s(22) = (     0          0          1      )    f =(  0.0000000 )
                  (     0          1          0      )       (  0.0000000 )
                  (     1          0          0      )       (  0.0000000 )

 cart.    s(22) = (  1.0000000  0.0000000  0.0000000 )    f =(  0.0000000 )
                  (  0.0000000  0.0000000  1.0000000 )       (  0.0000000 )
                  (  0.0000000  1.0000000  0.0000000 )       (  0.0000000 )


      isym = 23     inv.  90 deg rotation - cart. axis [-1,0,0]  

 cryst.   s(23) = (     0          0         -1      )    f =(  0.0000000 )
                  (     1          0         -1      )       (  0.0000000 )
                  (     0          1         -1      )       (  0.0000000 )

 cart.    s(23) = ( -1.0000000  0.0000000  0.0000000 )    f =(  0.0000000 )
                  (  0.0000000  0.0000000 -1.0000000 )       (  0.0000000 )
                  (  0.0000000  1.0000000  0.0000000 )       (  0.0000000 )


      isym = 24     inv.  90 deg rotation - cart. axis [1,0,0]   

 cryst.   s(24) = (    -1          1          0      )    f =(  0.0000000 )
                  (    -1          0          1      )       (  0.0000000 )
                  (    -1          0          0      )       (  0.0000000 )

 cart.    s(24) = ( -1.0000000  0.0000000  0.0000000 )    f =(  0.0000000 )
                  (  0.0000000  0.0000000  1.0000000 )       (  0.0000000 )
                  (  0.0000000 -1.0000000  0.0000000 )       (  0.0000000 )


     point group T_d (-43m) 
     there are  5 classes
     the character table:

       E     8C3   3C2   6S4   6s_d 
A_1    1.00  1.00  1.00  1.00  1.00
A_2    1.00  1.00  1.00 -1.00 -1.00
E      2.00 -1.00  2.00  0.00  0.00
T_1    3.00  0.00 -1.00  1.00 -1.00
T_2    3.00  0.00 -1.00 -1.00  1.00

     the symmetry operations in each class:
     E        1
     3C2      2    3    4
     8C3      5    7    8    6   12    9   10   11
     6s_d    13   14   17   18   21   22
     6S4     15   16   20   19   23   24

   Cartesian axes

     site n.     atom                  positions (alat units)
         1           Si  tau(   1) = (   0.0000000   0.0000000   0.0000000  )
         2           Si  tau(   2) = (   0.2500000   0.2500000   0.2500000  )

   Crystallographic axes

     site n.     atom                  positions (cryst. coord.)
         1           Si  tau(   1) = (  0.0000000  0.0000000  0.0000000  )
         2           Si  tau(   2) = ( -0.2500000  0.7500000 -0.2500000  )

     number of k points=    29
                       cart. coord. in units 2pi/alat
        k(    1) = (   0.0000000   0.0000000   0.0000000), wk =   0.0039063
        k(    2) = (  -0.1250000   0.1250000  -0.1250000), wk =   0.0312500
        k(    3) = (  -0.2500000   0.2500000  -0.2500000), wk =   0.0312500
        k(    4) = (  -0.3750000   0.3750000  -0.3750000), wk =   0.0312500
        k(    5) = (   0.5000000  -0.5000000   0.5000000), wk =   0.0156250
        k(    6) = (   0.0000000   0.2500000   0.0000000), wk =   0.0234375
        k(    7) = (  -0.1250000   0.3750000  -0.1250000), wk =   0.0937500
        k(    8) = (  -0.2500000   0.5000000  -0.2500000), wk =   0.0937500
        k(    9) = (   0.6250000  -0.3750000   0.6250000), wk =   0.0937500
        k(   10) = (   0.5000000  -0.2500000   0.5000000), wk =   0.0937500
        k(   11) = (   0.3750000  -0.1250000   0.3750000), wk =   0.0937500
        k(   12) = (   0.2500000   0.0000000   0.2500000), wk =   0.0468750
        k(   13) = (   0.0000000   0.5000000   0.0000000), wk =   0.0234375
        k(   14) = (  -0.1250000   0.6250000  -0.1250000), wk =   0.0937500
        k(   15) = (   0.7500000  -0.2500000   0.7500000), wk =   0.0937500
        k(   16) = (   0.6250000  -0.1250000   0.6250000), wk =   0.0937500
        k(   17) = (   0.5000000   0.0000000   0.5000000), wk =   0.0468750
        k(   18) = (   0.0000000   0.7500000   0.0000000), wk =   0.0234375
        k(   19) = (   0.8750000  -0.1250000   0.8750000), wk =   0.0937500
        k(   20) = (   0.7500000   0.0000000   0.7500000), wk =   0.0468750
        k(   21) = (   0.0000000  -1.0000000   0.0000000), wk =   0.0117188
        k(   22) = (  -0.2500000   0.5000000   0.0000000), wk =   0.0937500
        k(   23) = (   0.6250000  -0.3750000   0.8750000), wk =   0.1875000
        k(   24) = (   0.5000000  -0.2500000   0.7500000), wk =   0.0937500
        k(   25) = (   0.7500000  -0.2500000   1.0000000), wk =   0.0937500
        k(   26) = (   0.6250000  -0.1250000   0.8750000), wk =   0.1875000
        k(   27) = (   0.5000000   0.0000000   0.7500000), wk =   0.0937500
        k(   28) = (  -0.2500000  -1.0000000   0.0000000), wk =   0.0468750
        k(   29) = (  -0.5000000  -1.0000000   0.0000000), wk =   0.0234375

                       cryst. coord.
        k(    1) = (   0.0000000   0.0000000   0.0000000), wk =   0.0039063
        k(    2) = (   0.0000000   0.0000000   0.1250000), wk =   0.0312500
        k(    3) = (   0.0000000   0.0000000   0.2500000), wk =   0.0312500
        k(    4) = (   0.0000000   0.0000000   0.3750000), wk =   0.0312500
        k(    5) = (   0.0000000   0.0000000  -0.5000000), wk =   0.0156250
        k(    6) = (   0.0000000   0.1250000   0.1250000), wk =   0.0234375
        k(    7) = (   0.0000000   0.1250000   0.2500000), wk =   0.0937500
        k(    8) = (   0.0000000   0.1250000   0.3750000), wk =   0.0937500
        k(    9) = (   0.0000000   0.1250000  -0.5000000), wk =   0.0937500
        k(   10) = (   0.0000000   0.1250000  -0.3750000), wk =   0.0937500
        k(   11) = (   0.0000000   0.1250000  -0.2500000), wk =   0.0937500
        k(   12) = (   0.0000000   0.1250000  -0.1250000), wk =   0.0468750
        k(   13) = (   0.0000000   0.2500000   0.2500000), wk =   0.0234375
        k(   14) = (   0.0000000   0.2500000   0.3750000), wk =   0.0937500
        k(   15) = (   0.0000000   0.2500000  -0.5000000), wk =   0.0937500
        k(   16) = (   0.0000000   0.2500000  -0.3750000), wk =   0.0937500
        k(   17) = (   0.0000000   0.2500000  -0.2500000), wk =   0.0468750
        k(   18) = (   0.0000000   0.3750000   0.3750000), wk =   0.0234375
        k(   19) = (   0.0000000   0.3750000  -0.5000000), wk =   0.0937500
        k(   20) = (   0.0000000   0.3750000  -0.3750000), wk =   0.0468750
        k(   21) = (   0.0000000  -0.5000000  -0.5000000), wk =   0.0117188
        k(   22) = (   0.1250000   0.2500000   0.3750000), wk =   0.0937500
        k(   23) = (   0.1250000   0.2500000  -0.5000000), wk =   0.1875000
        k(   24) = (   0.1250000   0.2500000  -0.3750000), wk =   0.0937500
        k(   25) = (   0.1250000   0.3750000  -0.5000000), wk =   0.0937500
        k(   26) = (   0.1250000   0.3750000  -0.3750000), wk =   0.1875000
        k(   27) = (   0.1250000   0.3750000  -0.2500000), wk =   0.0937500
        k(   28) = (   0.1250000  -0.5000000  -0.3750000), wk =   0.0468750
        k(   29) = (   0.2500000  -0.5000000  -0.2500000), wk =   0.0234375

     Dense  grid:     2085 G-vectors     FFT dimensions: (  18,  18,  18)

     Largest allocated arrays     est. size (Mb)     dimensions
        Kohn-Sham Wavefunctions         0.21 Mb     (    273,   50)
        NL pseudopotentials             0.03 Mb     (    273,    8)
        Each V/rho on FFT grid          0.09 Mb     (   5832)
        Each G-vector array             0.02 Mb     (   2085)
        G-vector shells                 0.00 Mb     (     54)
     Largest temporary arrays     est. size (Mb)     dimensions
        Auxiliary wavefunctions         0.83 Mb     (    273,  200)
        Each subspace H/S matrix        0.61 Mb     ( 200, 200)
        Each <psi_i|beta_j> matrix      0.01 Mb     (      8,   50)
        Arrays for rho mixing           0.71 Mb     (   5832,   8)

     Initial potential from superposition of free atoms

     starting charge    7.99901, renormalised to    8.00000
     Starting wfc are    8 atomic +   42 random wfc

     total cpu time spent up to now is        1.9 secs

     per-process dynamical memory:     4.6 Mb

     Self-consistent Calculation

     iteration #  1     ecut=    15.00 Ry     beta=0.70
     Davidson diagonalization with overlap
     ethr =  1.00E-02,  avg # of iterations =  4.0

     Threshold (ethr) on eigenvalues was too large:
     Diagonalizing with lowered threshold

     Davidson diagonalization with overlap
     ethr =  7.81E-04,  avg # of iterations =  1.0

     total cpu time spent up to now is       18.2 secs

     total energy              =     -15.83051666 Ry
     Harris-Foulkes estimate   =     -15.85198144 Ry
     estimated scf accuracy    <       0.06245327 Ry

     iteration #  2     ecut=    15.00 Ry     beta=0.70
     Davidson diagonalization with overlap
     ethr =  7.81E-04,  avg # of iterations =  1.1

     total cpu time spent up to now is       22.4 secs

     total energy              =     -15.83435730 Ry
     Harris-Foulkes estimate   =     -15.83456463 Ry
     estimated scf accuracy    <       0.00171227 Ry

     iteration #  3     ecut=    15.00 Ry     beta=0.70
     Davidson diagonalization with overlap
     ethr =  2.14E-05,  avg # of iterations =  2.7

     total cpu time spent up to now is       28.0 secs

     total energy              =     -15.83436295 Ry
     Harris-Foulkes estimate   =     -15.83436867 Ry
     estimated scf accuracy    <       0.00005934 Ry

     iteration #  4     ecut=    15.00 Ry     beta=0.70
     Davidson diagonalization with overlap
     ethr =  7.42E-07,  avg # of iterations =  4.0

     total cpu time spent up to now is       34.7 secs

     total energy              =     -15.83436334 Ry
     Harris-Foulkes estimate   =     -15.83436333 Ry
     estimated scf accuracy    <       0.00000002 Ry

     iteration #  5     ecut=    15.00 Ry     beta=0.70
     Davidson diagonalization with overlap
     ethr =  2.09E-10,  avg # of iterations =  4.8

     total cpu time spent up to now is       45.5 secs

     End of self-consistent calculation

          k = 0.0000 0.0000 0.0000 (   259 PWs)   bands (ev):

    -5.7577   6.3154   6.3154   6.3154   8.8912   8.8912   8.8912   9.8479
    14.1057  14.2326  14.2326  17.6016  17.6016  17.6016  21.5063  29.7802
    29.7802  29.7802  31.2181  31.2181  32.1734  32.1734  32.1734  36.1738
    36.1738  36.1738  41.0247  41.8254  41.8254  41.8254  45.7542  45.7542
    47.8490  47.8490  47.9990  48.4282  48.4282  48.4282  49.2731  50.8993
    50.8993  50.8993  51.8790  51.8790  51.8790  52.1759  52.1759  52.1759
    53.4836  53.4836

     occupation numbers 
     0.0039   0.0039   0.0039   0.0039   0.0000   0.0000   0.0000   0.0000
     0.0000   0.0000   0.0000   0.0000   0.0000   0.0000   0.0000   0.0000
     0.0000   0.0000   0.0000   0.0000   0.0000   0.0000   0.0000   0.0000
     0.0000   0.0000   0.0000   0.0000   0.0000   0.0000   0.0000   0.0000
     0.0000   0.0000   0.0000   0.0000   0.0000   0.0000   0.0000   0.0000
     0.0000   0.0000   0.0000   0.0000   0.0000   0.0000   0.0000   0.0000
     0.0000   0.0000

          k =-0.1250 0.1250-0.1250 (   271 PWs)   bands (ev):

    -5.5655   4.7064   6.0132   6.0132   8.8586   9.3243   9.3243  11.1317
    13.7029  13.7029  14.9178  16.9872  18.8253  18.8253  22.8163  27.6860
    27.6860  27.8681  30.5866  30.5866  32.7856  32.7856  33.6023  36.3537
    38.3557  38.3557  39.1463  41.2364  41.2364  41.9528  43.7279  43.7279
    45.5343  45.5343  46.2301  48.0966  48.4508  48.4508  49.2614  50.5743
    51.0285  51.0285  51.4236  51.5506  51.5506  52.5685  53.8436  54.3248
    54.3248  55.9621

     occupation numbers 
     0.0313   0.0313   0.0313   0.0313   0.0000   0.0000   0.0000   0.0000
     0.0000   0.0000   0.0000   0.0000   0.0000   0.0000   0.0000   0.0000
     0.0000   0.0000   0.0000   0.0000   0.0000   0.0000   0.0000   0.0000
     0.0000   0.0000   0.0000   0.0000   0.0000   0.0000   0.0000   0.0000
     0.0000   0.0000   0.0000   0.0000   0.0000   0.0000   0.0000   0.0000
     0.0000   0.0000   0.0000   0.0000   0.0000   0.0000   0.0000   0.0000
     0.0000   0.0000

          k =-0.2500 0.2500-0.2500 (   268 PWs)   bands (ev):

    -4.9558   2.3431   5.5290   5.5290   8.3978   9.8522   9.8522  13.2774
    13.6396  13.6396  15.2116  18.1246  21.1534  21.1534  24.3990  24.4139
    24.4139  26.3231  30.7490  30.7490  33.1877  33.1877  34.5321  35.4702
    36.8934  38.6268  38.6268  40.3303  40.3303  41.3242  41.3242  43.5574
    44.8891  45.1971  45.1971  45.8394  46.3739  47.9558  48.0549  48.0549
    50.7837  50.7837  50.8646  54.0240  54.0240  54.9513  56.0906  56.4435
    56.4435  58.0875

     occupation numbers 
     0.0313   0.0313   0.0313   0.0313   0.0000   0.0000   0.0000   0.0000
     0.0000   0.0000   0.0000   0.0000   0.0000   0.0000   0.0000   0.0000
     0.0000   0.0000   0.0000   0.0000   0.0000   0.0000   0.0000   0.0000
     0.0000   0.0000   0.0000   0.0000   0.0000   0.0000   0.0000   0.0000
     0.0000   0.0000   0.0000   0.0000   0.0000   0.0000   0.0000   0.0000
     0.0000   0.0000   0.0000   0.0000   0.0000   0.0000   0.0000   0.0000
     0.0000   0.0000

          k =-0.3750 0.3750-0.3750 (   256 PWs)   bands (ev):

    -4.0348   0.2838   5.1995   5.1995   8.0513   9.7946   9.7946  14.0876
    15.0668  15.0668  16.0024  20.3313  20.3313  20.3960  23.0759  25.1033
    25.1033  29.2991  30.4159  30.5780  30.5780  33.4976  33.4976  35.0362
    35.0362  35.8777  37.6205  39.3258  39.3258  40.3742  40.3742  40.4300
    42.9001  44.2290  47.8385  47.8385  47.9575  48.3071  48.9274  48.9274
    50.1931  50.9963  50.9963  56.2178  56.2178  57.0995  57.7909  58.5894
    58.5894  60.8118

     occupation numbers 
     0.0313   0.0313   0.0313   0.0313   0.0000   0.0000   0.0000   0.0000
     0.0000   0.0000   0.0000   0.0000   0.0000   0.0000   0.0000   0.0000
     0.0000   0.0000   0.0000   0.0000   0.0000   0.0000   0.0000   0.0000
     0.0000   0.0000   0.0000   0.0000   0.0000   0.0000   0.0000   0.0000
     0.0000   0.0000   0.0000   0.0000   0.0000   0.0000   0.0000   0.0000
     0.0000   0.0000   0.0000   0.0000   0.0000   0.0000   0.0000   0.0000
     0.0000   0.0000

          k = 0.5000-0.5000 0.5000 (   266 PWs)   bands (ev):

    -3.3684  -0.7779   5.0835   5.0835   7.9241   9.6685   9.6685  13.9129
    17.1090  17.1090  17.6548  17.8176  17.8176  19.3388  25.8015  26.4055
    28.2441  28.2441  28.4730  28.4730  32.1311  33.1597  33.1597  34.0034
    34.0034  34.6998  38.0236  38.7923  38.9924  38.9924  39.6644  39.6644
    42.0121  43.3301  47.7197  47.7936  47.7936  49.4236  49.4236  49.8083
    50.8352  54.2577  54.2577  55.7176  55.7381  55.7381  58.9857  59.9551
    59.9551  60.8056

     occupation numbers 
     0.0156   0.0156   0.0156   0.0156   0.0000   0.0000   0.0000   0.0000
     0.0000   0.0000   0.0000   0.0000   0.0000   0.0000   0.0000   0.0000
     0.0000   0.0000   0.0000   0.0000   0.0000   0.0000   0.0000   0.0000
     0.0000   0.0000   0.0000   0.0000   0.0000   0.0000   0.0000   0.0000
     0.0000   0.0000   0.0000   0.0000   0.0000   0.0000   0.0000   0.0000
     0.0000   0.0000   0.0000   0.0000   0.0000   0.0000   0.0000   0.0000
     0.0000   0.0000

          k = 0.0000 0.2500 0.0000 (   267 PWs)   bands (ev):

    -5.4901   5.0136   5.4783   5.4783   8.3057  10.0620  10.0620  10.8158
    12.9336  14.5406  15.2228  18.0867  18.0867  18.5712  23.4589  27.1445
    27.1445  28.6269  29.2217  30.1329  33.0523  33.4234  33.4234  38.1392
    38.1392  38.7797  39.9136  39.9136  39.9386  42.0565  42.4098  43.9312
    45.1541  46.2938  47.4762  47.5315  47.5315  49.0482  49.0482  50.0141
    50.0141  50.2201  50.7444  53.3849  53.6989  53.9478  54.1636  54.1636
    54.8564  55.0602

     occupation numbers 
     0.0234   0.0234   0.0234   0.0234   0.0000   0.0000   0.0000   0.0000
     0.0000   0.0000   0.0000   0.0000   0.0000   0.0000   0.0000   0.0000
     0.0000   0.0000   0.0000   0.0000   0.0000   0.0000   0.0000   0.0000
     0.0000   0.0000   0.0000   0.0000   0.0000   0.0000   0.0000   0.0000
     0.0000   0.0000   0.0000   0.0000   0.0000   0.0000   0.0000   0.0000
     0.0000   0.0000   0.0000   0.0000   0.0000   0.0000   0.0000   0.0000
     0.0000   0.0000

          k =-0.1250 0.3750-0.1250 (   263 PWs)   bands (ev):

    -5.0132   3.0808   4.9550   5.0481   8.4493  10.1060  10.8444  11.0947
    13.9289  14.6892  16.2581  17.8949  19.5879  20.8725  24.1435  24.5690
    25.6415  28.0893  28.2904  29.5665  32.7264  33.9136  34.9559  36.3555
    38.2217  38.7277  38.7555  39.8431  40.3362  41.1915  42.1185  42.7693
    44.2128  44.7821  45.3143  46.9173  47.1410  47.8413  48.6644  50.1581
    50.1904  51.3591  51.7069  52.1970  53.0507  53.8790  54.8588  56.3277
    56.7584  57.2865

     occupation numbers 
     0.0938   0.0938   0.0938   0.0938   0.0000   0.0000   0.0000   0.0000
     0.0000   0.0000   0.0000   0.0000   0.0000   0.0000   0.0000   0.0000
     0.0000   0.0000   0.0000   0.0000   0.0000   0.0000   0.0000   0.0000
     0.0000   0.0000   0.0000   0.0000   0.0000   0.0000   0.0000   0.0000
     0.0000   0.0000   0.0000   0.0000   0.0000   0.0000   0.0000   0.0000
     0.0000   0.0000   0.0000   0.0000   0.0000   0.0000   0.0000   0.0000
     0.0000   0.0000

          k =-0.2500 0.5000-0.2500 (   267 PWs)   bands (ev):

    -4.1807   0.9715   4.4436   4.6798   8.5673  10.0098  10.8276  11.8151
    15.6574  15.8286  16.3033  19.7866  19.9588  21.6914  23.1541  24.1251
    25.1154  28.5566  29.0919  30.0159  31.2881  32.1387  34.1704  35.6055
    36.7644  36.8042  37.0704  38.2996  39.6909  40.0188  41.6679  42.4361
    43.5819  44.7765  45.1797  45.8436  47.3576  48.6694  49.4001  49.9047
    51.0564  51.3934  52.7947  53.8353  53.9398  56.1556  56.8791  57.2847
    57.9804  59.5199

     occupation numbers 
     0.0938   0.0938   0.0938   0.0938   0.0000   0.0000   0.0000   0.0000
     0.0000   0.0000   0.0000   0.0000   0.0000   0.0000   0.0000   0.0000
     0.0000   0.0000   0.0000   0.0000   0.0000   0.0000   0.0000   0.0000
     0.0000   0.0000   0.0000   0.0000   0.0000   0.0000   0.0000   0.0000
     0.0000   0.0000   0.0000   0.0000   0.0000   0.0000   0.0000   0.0000
     0.0000   0.0000   0.0000   0.0000   0.0000   0.0000   0.0000   0.0000
     0.0000   0.0000

          k = 0.6250-0.3750 0.6250 (   259 PWs)   bands (ev):

    -3.2836  -0.5344   3.9907   4.7080   8.5333   9.8583  10.4597  13.7312
    15.3028  17.0209  17.9247  18.1724  18.9270  21.5176  24.7468  26.2400
    26.7734  27.6981  28.6102  28.9355  31.2351  32.3957  33.0805  34.2791
    34.7225  36.0963  36.6187  36.6720  39.2177  40.1384  40.5800  40.7263
    43.3146  44.2296  45.2808  46.4671  48.1041  49.3462  51.3753  51.5790
    52.0706  54.0785  54.8823  55.1484  55.2887  55.3850  56.3360  57.3008
    58.1364  61.1828

     occupation numbers 
     0.0938   0.0938   0.0938   0.0938   0.0000   0.0000   0.0000   0.0000
     0.0000   0.0000   0.0000   0.0000   0.0000   0.0000   0.0000   0.0000
     0.0000   0.0000   0.0000   0.0000   0.0000   0.0000   0.0000   0.0000
     0.0000   0.0000   0.0000   0.0000   0.0000   0.0000   0.0000   0.0000
     0.0000   0.0000   0.0000   0.0000   0.0000   0.0000   0.0000   0.0000
     0.0000   0.0000   0.0000   0.0000   0.0000   0.0000   0.0000   0.0000
     0.0000   0.0000

          k = 0.5000-0.2500 0.5000 (   254 PWs)   bands (ev):

    -3.5360  -0.1484   3.8002   5.0155   8.7230   9.9584  10.2208  14.2362
    14.5620  15.5659  17.6099  18.9226  20.8594  21.0878  23.3144  25.1612
    27.1731  28.6788  29.0320  29.2054  31.4151  31.5538  33.8752  34.1217
    34.5867  35.6403  37.0034  37.8067  40.1208  40.2678  40.4139  40.8596
    43.8091  44.2181  45.6863  46.0554  47.6527  48.8923  49.5914  51.6036
    52.2775  53.3288  53.7098  54.0991  56.1081  56.6070  57.6074  58.6970
    58.9149  61.1133

     occupation numbers 
     0.0938   0.0938   0.0938   0.0938   0.0000   0.0000   0.0000   0.0000
     0.0000   0.0000   0.0000   0.0000   0.0000   0.0000   0.0000   0.0000
     0.0000   0.0000   0.0000   0.0000   0.0000   0.0000   0.0000   0.0000
     0.0000   0.0000   0.0000   0.0000   0.0000   0.0000   0.0000   0.0000
     0.0000   0.0000   0.0000   0.0000   0.0000   0.0000   0.0000   0.0000
     0.0000   0.0000   0.0000   0.0000   0.0000   0.0000   0.0000   0.0000
     0.0000   0.0000

          k = 0.3750-0.1250 0.3750 (   262 PWs)   bands (ev):

    -4.4924   1.6484   3.9406   5.5184   9.0976  10.0223  10.1922  12.6548
    12.8950  16.1134  16.5513  18.7848  20.4841  21.8455  23.0037  24.5068
    25.3994  28.0896  28.6255  29.5416  32.6711  33.2039  33.6759  36.2108
    36.2939  37.4666  37.8873  38.8544  40.0954  41.1122  41.3820  43.9125
    44.0763  45.0013  45.3667  45.4085  45.9031  46.9441  48.4861  49.1817
    50.2771  53.1571  53.1624  53.6881  53.9757  54.2367  56.9451  58.6627
    58.7315  59.4205

     occupation numbers 
     0.0938   0.0938   0.0938   0.0938   0.0000   0.0000   0.0000   0.0000
     0.0000   0.0000   0.0000   0.0000   0.0000   0.0000   0.0000   0.0000
     0.0000   0.0000   0.0000   0.0000   0.0000   0.0000   0.0000   0.0000
     0.0000   0.0000   0.0000   0.0000   0.0000   0.0000   0.0000   0.0000
     0.0000   0.0000   0.0000   0.0000   0.0000   0.0000   0.0000   0.0000
     0.0000   0.0000   0.0000   0.0000   0.0000   0.0000   0.0000   0.0000
     0.0000   0.0000

          k = 0.2500 0.0000 0.2500 (   273 PWs)   bands (ev):

    -5.2243   3.6324   4.6246   6.0122   9.4294   9.4585   9.6903  11.9285
    12.7576  14.4961  15.9677  17.5240  18.7396  20.9681  24.2223  24.4302
    27.4135  27.7774  28.3498  29.6941  32.8634  33.3416  35.3992  37.0684
    37.6493  38.6073  39.1922  40.6510  40.6865  41.3122  42.8334  42.8611
    43.1597  45.2148  45.5928  46.2960  47.0419  48.8500  49.4223  49.5951
    50.2430  50.5051  50.9856  52.6801  53.3544  53.8162  54.3117  54.7742
    55.3612  57.7285

     occupation numbers 
     0.0469   0.0469   0.0469   0.0469   0.0000   0.0000   0.0000   0.0000
     0.0000   0.0000   0.0000   0.0000   0.0000   0.0000   0.0000   0.0000
     0.0000   0.0000   0.0000   0.0000   0.0000   0.0000   0.0000   0.0000
     0.0000   0.0000   0.0000   0.0000   0.0000   0.0000   0.0000   0.0000
     0.0000   0.0000   0.0000   0.0000   0.0000   0.0000   0.0000   0.0000
     0.0000   0.0000   0.0000   0.0000   0.0000   0.0000   0.0000   0.0000
     0.0000   0.0000

          k = 0.0000 0.5000 0.0000 (   258 PWs)   bands (ev):

    -4.6616   2.8286   4.3693   4.3693   7.3943   9.4457  12.1604  12.1604
    14.4932  15.4746  17.6622  19.4501  19.4501  20.0884  23.8856  23.8856
    25.0724  26.7658  27.4504  31.4995  32.8737  34.0350  34.0350  36.1310
    36.1310  36.4503  36.7747  41.2067  41.8474  42.4849  42.4849  44.1299
    44.1848  44.1848  44.8996  45.5707  47.7017  47.7017  48.4222  50.6533
    50.6533  50.8693  51.0359  53.6143  53.6629  54.1886  54.1886  56.2921
    57.4482  58.1041

     occupation numbers 
     0.0234   0.0234   0.0234   0.0234   0.0000   0.0000   0.0000   0.0000
     0.0000   0.0000   0.0000   0.0000   0.0000   0.0000   0.0000   0.0000
     0.0000   0.0000   0.0000   0.0000   0.0000   0.0000   0.0000   0.0000
     0.0000   0.0000   0.0000   0.0000   0.0000   0.0000   0.0000   0.0000
     0.0000   0.0000   0.0000   0.0000   0.0000   0.0000   0.0000   0.0000
     0.0000   0.0000   0.0000   0.0000   0.0000   0.0000   0.0000   0.0000
     0.0000   0.0000

          k =-0.1250 0.6250-0.1250 (   257 PWs)   bands (ev):

    -3.9356   1.3792   3.5654   4.0430   7.6225   9.1926  12.4057  12.6802
    16.5386  16.6003  17.9929  19.7684  20.0958  21.3120  22.3563  23.5223
    25.0543  26.3262  28.4609  30.7196  31.6738  33.0365  33.0547  33.8928
    35.5633  35.9750  37.0316  39.6572  40.2979  42.1360  42.6269  43.4964
    43.9140  43.9893  46.0007  46.5336  47.0729  48.1227  49.2454  50.8614
    51.0952  51.8581  52.3385  53.5612  54.4112  54.6110  55.1317  56.0265
    57.4530  59.5895

     occupation numbers 
     0.0938   0.0938   0.0938   0.0938   0.0000   0.0000   0.0000   0.0000
     0.0000   0.0000   0.0000   0.0000   0.0000   0.0000   0.0000   0.0000
     0.0000   0.0000   0.0000   0.0000   0.0000   0.0000   0.0000   0.0000
     0.0000   0.0000   0.0000   0.0000   0.0000   0.0000   0.0000   0.0000
     0.0000   0.0000   0.0000   0.0000   0.0000   0.0000   0.0000   0.0000
     0.0000   0.0000   0.0000   0.0000   0.0000   0.0000   0.0000   0.0000
     0.0000   0.0000

          k = 0.7500-0.2500 0.7500 (   254 PWs)   bands (ev):

    -2.9826  -0.1053   2.6812   4.0469   7.7955  10.7748  12.1442  12.3240
    16.5928  17.0641  18.7463  19.1181  19.3725  23.2762  24.3584  25.1603
    25.9266  26.0888  26.4309  29.3393  30.3992  31.8525  32.0263  34.2131
    35.8698  36.0620  36.0970  37.2325  38.7890  41.0991  41.3669  42.9982
    43.4012  44.3877  45.4081  46.7771  48.8298  49.7038  51.5571  51.8044
    52.1893  52.8379  53.4045  53.7696  54.9475  55.6654  56.2009  57.8321
    58.8263  59.3398

     occupation numbers 
     0.0938   0.0938   0.0938   0.0938   0.0000   0.0000   0.0000   0.0000
     0.0000   0.0000   0.0000   0.0000   0.0000   0.0000   0.0000   0.0000
     0.0000   0.0000   0.0000   0.0000   0.0000   0.0000   0.0000   0.0000
     0.0000   0.0000   0.0000   0.0000   0.0000   0.0000   0.0000   0.0000
     0.0000   0.0000   0.0000   0.0000   0.0000   0.0000   0.0000   0.0000
     0.0000   0.0000   0.0000   0.0000   0.0000   0.0000   0.0000   0.0000
     0.0000   0.0000

          k = 0.6250-0.1250 0.6250 (   255 PWs)   bands (ev):

    -2.7649  -0.3781   2.2060   4.3749   8.1334  11.8260  11.8722  13.3496
    14.3960  14.4400  18.9150  21.4519  21.5140  22.5421  22.9206  25.0659
    25.9838  26.4528  28.3475  28.7006  31.3616  31.7616  32.4993  32.9513
    34.2050  35.0745  36.0389  36.6870  39.9810  40.9179  41.6469  42.5149
    43.4072  44.6448  44.6909  46.8188  49.1692  49.7106  49.9366  51.7171
    52.0198  53.1203  55.2905  55.7167  56.1720  56.2132  56.8360  57.0958
    59.3557  60.7969

     occupation numbers 
     0.0938   0.0938   0.0938   0.0938   0.0000   0.0000   0.0000   0.0000
     0.0000   0.0000   0.0000   0.0000   0.0000   0.0000   0.0000   0.0000
     0.0000   0.0000   0.0000   0.0000   0.0000   0.0000   0.0000   0.0000
     0.0000   0.0000   0.0000   0.0000   0.0000   0.0000   0.0000   0.0000
     0.0000   0.0000   0.0000   0.0000   0.0000   0.0000   0.0000   0.0000
     0.0000   0.0000   0.0000   0.0000   0.0000   0.0000   0.0000   0.0000
     0.0000   0.0000

          k = 0.5000 0.0000 0.5000 (   256 PWs)   bands (ev):

    -3.6757   0.8192   2.4398   4.9504   8.7761  11.1622  11.4890  12.5101
    12.8698  16.0408  18.9857  19.7290  19.7925  23.1041  23.7392  23.9356
    25.3201  27.7299  28.2852  30.5434  31.1893  32.0180  33.2099  33.7176
    33.9333  36.0165  37.1658  37.8356  40.8095  41.2023  42.7366  43.2980
    44.1861  44.2551  44.9284  45.2928  45.6860  46.8905  50.1463  50.9453
    50.9582  53.3820  55.3343  55.4047  56.1972  56.9595  57.5504  57.7666
    58.4597  59.0786

     occupation numbers 
     0.0469   0.0469   0.0469   0.0469   0.0000   0.0000   0.0000   0.0000
     0.0000   0.0000   0.0000   0.0000   0.0000   0.0000   0.0000   0.0000
     0.0000   0.0000   0.0000   0.0000   0.0000   0.0000   0.0000   0.0000
     0.0000   0.0000   0.0000   0.0000   0.0000   0.0000   0.0000   0.0000
     0.0000   0.0000   0.0000   0.0000   0.0000   0.0000   0.0000   0.0000
     0.0000   0.0000   0.0000   0.0000   0.0000   0.0000   0.0000   0.0000
     0.0000   0.0000

          k = 0.0000 0.7500 0.0000 (   254 PWs)   bands (ev):

    -3.3208   0.5767   3.6344   3.6344   6.8660   7.7990  14.4814  14.4814
    17.0225  17.1125  19.5736  19.5736  19.9358  21.8482  22.3781  23.2321
    23.2321  25.1564  29.9603  30.2551  30.7202  30.7202  31.7711  33.9498
    35.6061  35.7675  35.7675  40.8256  41.7795  41.7795  42.7484  43.3300
    43.5026  46.6989  46.6989  46.7717  46.7717  47.7417  49.0668  49.8137
    50.3911  50.3911  50.7536  52.5374  56.0536  56.7095  56.7095  57.8498
    60.0226  61.3177

     occupation numbers 
     0.0234   0.0234   0.0234   0.0234   0.0000   0.0000   0.0000   0.0000
     0.0000   0.0000   0.0000   0.0000   0.0000   0.0000   0.0000   0.0000
     0.0000   0.0000   0.0000   0.0000   0.0000   0.0000   0.0000   0.0000
     0.0000   0.0000   0.0000   0.0000   0.0000   0.0000   0.0000   0.0000
     0.0000   0.0000   0.0000   0.0000   0.0000   0.0000   0.0000   0.0000
     0.0000   0.0000   0.0000   0.0000   0.0000   0.0000   0.0000   0.0000
     0.0000   0.0000

          k = 0.8750-0.1250 0.8750 (   254 PWs)   bands (ev):

    -2.4018  -0.5269   2.7680   3.5560   7.1447   8.2484  14.7148  14.7784
    17.2060  17.3362  18.9162  19.2671  21.3470  21.5843  22.3569  25.1591
    25.2404  25.8692  27.2686  28.8871  29.1012  30.0514  30.7005  32.5703
    36.1188  36.6158  38.4456  39.1622  39.8447  41.1393  42.3541  42.5889
    44.0216  45.5352  45.7595  46.0658  47.4662  49.0466  49.6095  49.9482
    51.4920  52.2591  54.4437  54.8606  54.9418  56.2779  57.1912  58.9386
    58.9680  61.2293

     occupation numbers 
     0.0938   0.0938   0.0938   0.0938   0.0000   0.0000   0.0000   0.0000
     0.0000   0.0000   0.0000   0.0000   0.0000   0.0000   0.0000   0.0000
     0.0000   0.0000   0.0000   0.0000   0.0000   0.0000   0.0000   0.0000
     0.0000   0.0000   0.0000   0.0000   0.0000   0.0000   0.0000   0.0000
     0.0000   0.0000   0.0000   0.0000   0.0000   0.0000   0.0000   0.0000
     0.0000   0.0000   0.0000   0.0000   0.0000   0.0000   0.0000   0.0000
     0.0000   0.0000

          k = 0.7500 0.0000 0.7500 (   264 PWs)   bands (ev):

    -1.9442  -0.9468   1.8606   3.8189   7.4575  10.4489  13.8970  14.4260
    14.6175  14.9836  21.0860  21.5569  22.0734  22.1419  22.2579  23.5454
    26.2307  26.3545  28.0982  28.1519  29.1533  29.6015  31.7655  32.4642
    35.5262  35.7368  36.1796  37.7726  40.9416  41.3281  41.7280  41.7373
    42.9537  44.5941  45.3001  47.4825  49.0342  49.2816  50.4694  51.0806
    52.5671  53.2204  53.5743  54.4066  55.7943  56.4414  58.5970  58.8146
    59.1007  59.5563

     occupation numbers 
     0.0469   0.0469   0.0469   0.0469   0.0000   0.0000   0.0000   0.0000
     0.0000   0.0000   0.0000   0.0000   0.0000   0.0000   0.0000   0.0000
     0.0000   0.0000   0.0000   0.0000   0.0000   0.0000   0.0000   0.0000
     0.0000   0.0000   0.0000   0.0000   0.0000   0.0000   0.0000   0.0000
     0.0000   0.0000   0.0000   0.0000   0.0000   0.0000   0.0000   0.0000
     0.0000   0.0000   0.0000   0.0000   0.0000   0.0000   0.0000   0.0000
     0.0000   0.0000

          k = 0.0000-1.0000 0.0000 (   254 PWs)   bands (ev):

    -1.5331  -1.5331   3.3819   3.3819   6.9514   6.9515  16.5402  16.5402
    17.5438  17.5438  19.1493  19.1493  19.3844  19.3844  25.3263  25.3263
    26.1674  26.1674  26.8084  26.8084  27.7498  27.7499  32.2540  32.2540
    36.2598  36.2598  40.6936  40.6938  40.7864  40.7864  42.9214  42.9214
    43.1169  43.1175  46.4582  46.4582  47.7158  47.7158  48.4210  48.4211
    52.4125  52.4125  54.0802  54.0822  56.4913  56.4913  58.0789  58.0789
    61.5276  61.5280

     occupation numbers 
     0.0117   0.0117   0.0117   0.0117   0.0000   0.0000   0.0000   0.0000
     0.0000   0.0000   0.0000   0.0000   0.0000   0.0000   0.0000   0.0000
     0.0000   0.0000   0.0000   0.0000   0.0000   0.0000   0.0000   0.0000
     0.0000   0.0000   0.0000   0.0000   0.0000   0.0000   0.0000   0.0000
     0.0000   0.0000   0.0000   0.0000   0.0000   0.0000   0.0000   0.0000
     0.0000   0.0000   0.0000   0.0000   0.0000   0.0000   0.0000   0.0000
     0.0000   0.0000

          k =-0.2500 0.5000 0.0000 (   268 PWs)   bands (ev):

    -4.4146   2.0230   3.5121   4.8473   8.7502  10.2879  10.5078  11.8860
    14.2259  16.7221  17.3783  18.4862  20.3356  21.4694  22.4096  24.6772
    25.9089  27.0687  28.3057  29.8731  31.6031  32.7134  34.4660  35.4215
    36.2074  38.0997  38.4069  38.7321  40.5673  40.7612  42.0439  42.1028
    43.0820  45.5598  46.1600  46.5750  47.2517  47.9253  48.1220  48.5595
    50.2345  51.6997  52.3767  54.0603  54.1854  55.8253  56.1999  57.1733
    57.3201  57.9301

     occupation numbers 
     0.0938   0.0938   0.0938   0.0938   0.0000   0.0000   0.0000   0.0000
     0.0000   0.0000   0.0000   0.0000   0.0000   0.0000   0.0000   0.0000
     0.0000   0.0000   0.0000   0.0000   0.0000   0.0000   0.0000   0.0000
     0.0000   0.0000   0.0000   0.0000   0.0000   0.0000   0.0000   0.0000
     0.0000   0.0000   0.0000   0.0000   0.0000   0.0000   0.0000   0.0000
     0.0000   0.0000   0.0000   0.0000   0.0000   0.0000   0.0000   0.0000
     0.0000   0.0000

          k = 0.6250-0.3750 0.8750 (   259 PWs)   bands (ev):

    -3.4969   0.4330   2.9030   4.3265   9.1938   9.8915  11.3752  12.3336
    15.4737  16.1310  18.3735  19.4297  20.6825  21.5781  23.7509  24.7828
    25.5994  27.5480  28.4427  29.3826  30.7548  32.1693  32.5314  33.7162
    35.3598  36.2469  37.8781  38.0673  38.9552  39.9372  41.1106  42.4617
    43.2291  45.5172  45.9015  46.9369  47.8480  48.7597  49.1338  50.8333
    51.5666  52.3493  53.9760  54.5062  55.1322  56.5549  56.9379  58.2866
    58.7070  59.4668

     occupation numbers 
     0.1875   0.1875   0.1875   0.1875   0.0000   0.0000   0.0000   0.0000
     0.0000   0.0000   0.0000   0.0000   0.0000   0.0000   0.0000   0.0000
     0.0000   0.0000   0.0000   0.0000   0.0000   0.0000   0.0000   0.0000
     0.0000   0.0000   0.0000   0.0000   0.0000   0.0000   0.0000   0.0000
     0.0000   0.0000   0.0000   0.0000   0.0000   0.0000   0.0000   0.0000
     0.0000   0.0000   0.0000   0.0000   0.0000   0.0000   0.0000   0.0000
     0.0000   0.0000

          k = 0.5000-0.2500 0.7500 (   254 PWs)   bands (ev):

    -2.8144  -0.5463   2.7834   4.0879   9.4236   9.4274  12.3140  13.5068
    13.7858  17.0247  18.1517  18.7910  22.0138  22.1149  24.6312  24.9302
    26.0245  27.3970  27.5858  28.6699  31.5176  32.0485  32.0660  32.5550
    34.9139  36.1826  36.5465  37.6323  38.6025  39.1507  40.7506  41.6264
    43.5196  45.6679  45.7303  47.7888  49.1805  50.1183  50.3450  51.4649
    51.7223  52.2608  53.5973  54.6559  55.7350  56.8431  57.7645  58.3678
    60.1572  60.3006

     occupation numbers 
     0.0938   0.0938   0.0938   0.0938   0.0000   0.0000   0.0000   0.0000
     0.0000   0.0000   0.0000   0.0000   0.0000   0.0000   0.0000   0.0000
     0.0000   0.0000   0.0000   0.0000   0.0000   0.0000   0.0000   0.0000
     0.0000   0.0000   0.0000   0.0000   0.0000   0.0000   0.0000   0.0000
     0.0000   0.0000   0.0000   0.0000   0.0000   0.0000   0.0000   0.0000
     0.0000   0.0000   0.0000   0.0000   0.0000   0.0000   0.0000   0.0000
     0.0000   0.0000

          k = 0.7500-0.2500 1.0000 (   253 PWs)   bands (ev):

    -3.1147   0.3529   2.8459   3.4666   8.2355   8.9379  12.1498  14.4301
    16.6693  16.6752  19.3777  19.8495  20.6061  21.0540  23.1001  23.6656
    26.0661  26.4739  28.4067  28.4137  29.9855  30.7646  32.8253  34.2424
    34.7828  35.6446  38.4282  39.2170  39.4597  39.8132  40.2218  44.1779
    44.9839  45.2796  46.7894  46.8172  47.8573  48.7255  49.3559  49.6171
    51.1500  52.9217  53.5031  54.8626  54.9725  55.4589  55.6463  58.0232
    58.3837  60.0410

     occupation numbers 
     0.0938   0.0938   0.0938   0.0938   0.0000   0.0000   0.0000   0.0000
     0.0000   0.0000   0.0000   0.0000   0.0000   0.0000   0.0000   0.0000
     0.0000   0.0000   0.0000   0.0000   0.0000   0.0000   0.0000   0.0000
     0.0000   0.0000   0.0000   0.0000   0.0000   0.0000   0.0000   0.0000
     0.0000   0.0000   0.0000   0.0000   0.0000   0.0000   0.0000   0.0000
     0.0000   0.0000   0.0000   0.0000   0.0000   0.0000   0.0000   0.0000
     0.0000   0.0000

          k = 0.6250-0.1250 0.8750 (   258 PWs)   bands (ev):

    -2.2136  -0.6394   2.1186   3.2574   8.6790  10.5991  11.6605  13.8410
    14.8509  17.5840  18.7148  20.6735  21.8988  22.5329  23.9933  24.7689
    25.3118  25.9808  27.5451  28.3282  29.2893  30.7546  31.4968  34.1917
    34.5188  35.3584  37.2898  37.7100  38.7297  39.1308  40.8667  43.1942
    45.2260  45.7745  46.6002  47.9236  48.1295  49.2844  49.5197  51.0800
    51.8013  52.8419  53.5581  55.0232  55.6900  56.2434  57.4146  58.3985
    59.4436  60.1103

     occupation numbers 
     0.1875   0.1875   0.1875   0.1875   0.0000   0.0000   0.0000   0.0000
     0.0000   0.0000   0.0000   0.0000   0.0000   0.0000   0.0000   0.0000
     0.0000   0.0000   0.0000   0.0000   0.0000   0.0000   0.0000   0.0000
     0.0000   0.0000   0.0000   0.0000   0.0000   0.0000   0.0000   0.0000
     0.0000   0.0000   0.0000   0.0000   0.0000   0.0000   0.0000   0.0000
     0.0000   0.0000   0.0000   0.0000   0.0000   0.0000   0.0000   0.0000
     0.0000   0.0000

          k = 0.5000 0.0000 0.7500 (   262 PWs)   bands (ev):

    -2.5769  -0.2717   1.9436   3.6460   9.1766  10.8871  11.5799  13.4144
    14.2992  15.7049  20.5746  20.7041  20.9725  22.8691  23.0610  24.9469
    25.6496  26.5236  27.7081  28.5385  29.8935  31.1355  32.3997  33.6175
    34.7748  35.5537  35.8398  37.9536  38.3454  38.6805  41.7538  44.1160
    44.3791  45.1278  45.6829  47.2874  49.2947  49.3084  50.6852  50.6991
    51.4017  51.9962  53.0508  54.3549  56.2008  56.9172  57.1827  59.4173
    59.6280  60.9778

     occupation numbers 
     0.0938   0.0938   0.0938   0.0938   0.0000   0.0000   0.0000   0.0000
     0.0000   0.0000   0.0000   0.0000   0.0000   0.0000   0.0000   0.0000
     0.0000   0.0000   0.0000   0.0000   0.0000   0.0000   0.0000   0.0000
     0.0000   0.0000   0.0000   0.0000   0.0000   0.0000   0.0000   0.0000
     0.0000   0.0000   0.0000   0.0000   0.0000   0.0000   0.0000   0.0000
     0.0000   0.0000   0.0000   0.0000   0.0000   0.0000   0.0000   0.0000
     0.0000   0.0000

          k =-0.2500-1.0000 0.0000 (   254 PWs)   bands (ev):

    -1.4492  -1.4492   2.7868   2.7868   8.2482   8.2482  14.2679  14.2679
    17.0686  17.0686  19.3897  19.3897  22.1009  22.1009  23.8666  23.8666
    25.4403  25.4403  28.3277  28.3277  29.4444  29.4444  30.7210  30.7210
    36.7344  36.7346  38.5867  38.5868  39.3377  39.3377  42.9373  42.9374
    44.7516  44.7516  45.6974  45.6979  49.0102  49.0103  49.6941  49.6944
    52.9579  52.9587  54.9500  54.9503  55.7361  55.7366  58.0066  58.0067
    59.6060  59.6061

     occupation numbers 
     0.0469   0.0469   0.0469   0.0469   0.0000   0.0000   0.0000   0.0000
     0.0000   0.0000   0.0000   0.0000   0.0000   0.0000   0.0000   0.0000
     0.0000   0.0000   0.0000   0.0000   0.0000   0.0000   0.0000   0.0000
     0.0000   0.0000   0.0000   0.0000   0.0000   0.0000   0.0000   0.0000
     0.0000   0.0000   0.0000   0.0000   0.0000   0.0000   0.0000   0.0000
     0.0000   0.0000   0.0000   0.0000   0.0000   0.0000   0.0000   0.0000
     0.0000   0.0000

          k =-0.5000-1.0000 0.0000 (   264 PWs)   bands (ev):

    -1.3614  -1.3614   2.3258   2.3258  10.5679  10.5679  11.3862  11.3862
    17.0670  17.0670  19.5320  19.5320  22.8800  22.8800  24.9381  24.9381
    25.4761  25.4761  26.4178  26.4178  30.2299  30.2299  34.1246  34.1246
    34.2940  34.2940  35.2770  35.2773  39.5313  39.5313  43.3569  43.3570
    44.8124  44.8124  46.9309  46.9311  49.4069  49.4084  50.2082  50.2082
    52.6274  52.6279  54.4432  54.4432  55.7986  55.7986  56.5901  56.5903
    61.3211  61.3218

     occupation numbers 
     0.0234   0.0234   0.0234   0.0234   0.0000   0.0000   0.0000   0.0000
     0.0000   0.0000   0.0000   0.0000   0.0000   0.0000   0.0000   0.0000
     0.0000   0.0000   0.0000   0.0000   0.0000   0.0000   0.0000   0.0000
     0.0000   0.0000   0.0000   0.0000   0.0000   0.0000   0.0000   0.0000
     0.0000   0.0000   0.0000   0.0000   0.0000   0.0000   0.0000   0.0000
     0.0000   0.0000   0.0000   0.0000   0.0000   0.0000   0.0000   0.0000
     0.0000   0.0000

     highest occupied, lowest unoccupied level (ev):     6.3154    6.8660

!    total energy              =     -15.83436334 Ry
     Harris-Foulkes estimate   =     -15.83436334 Ry
     estimated scf accuracy    <          4.9E-11 Ry

     The total energy is the sum of the following terms:

     one-electron contribution =       4.84096199 Ry
     hartree contribution      =       1.07047994 Ry
     xc contribution           =      -4.81783339 Ry
     ewald contribution        =     -16.92797188 Ry

     convergence has been achieved in   5 iterations

     Forces acting on atoms (Ry/au):

     atom    1 type  1   force =     0.00000000    0.00000000    0.00000000
     atom    2 type  1   force =     0.00000000    0.00000000   -0.00000000
     The non-local contrib.  to forces
     atom    1 type  1   force =     0.00000000   -0.00000000    0.00000000
     atom    2 type  1   force =     0.00000000   -0.00000000    0.00000000
     The ionic contribution  to forces
     atom    1 type  1   force =    -0.00000000   -0.00000000   -0.00000000
     atom    2 type  1   force =    -0.00000000    0.00000000   -0.00000000
     The local contribution  to forces
     atom    1 type  1   force =    -0.00000000    0.00000000   -0.00000000
     atom    2 type  1   force =    -0.00000000   -0.00000000    0.00000000
     The core correction contribution to forces
     atom    1 type  1   force =     0.00000000    0.00000000    0.00000000
     atom    2 type  1   force =     0.00000000    0.00000000    0.00000000
     The Hubbard contrib.    to forces
     atom    1 type  1   force =     0.00000000    0.00000000    0.00000000
     atom    2 type  1   force =     0.00000000    0.00000000    0.00000000
     The SCF correction term to forces
     atom    1 type  1   force =     0.00000000   -0.00000000   -0.00000000
     atom    2 type  1   force =     0.00000000   -0.00000000    0.00000000

     Total force =     0.000000     Total SCF correction =     0.000000


     entering subroutine stress ...

          total   stress  (Ry/bohr**3)                   (kbar)     P=  -15.62
  -0.00010617   0.00000000   0.00000000        -15.62      0.00      0.00
   0.00000000  -0.00010617   0.00000000          0.00    -15.62      0.00
   0.00000000  -0.00000000  -0.00010617          0.00     -0.00    -15.62

     kinetic stress (kbar)   2299.35     -0.00     -0.00
                               -0.00   2299.35     -0.00
                               -0.00     -0.00   2299.35

     local   stress (kbar)  -1425.01      0.00     -0.00
                                0.00  -1425.01     -0.00
                               -0.00     -0.00  -1425.01

     nonloc. stress (kbar)   2871.74     -0.00      0.00
                                0.00   2871.74      0.00
                                0.00     -0.00   2871.74

     hartree stress (kbar)    198.85     -0.00     -0.00
                               -0.00    198.85      0.00
                               -0.00      0.00    198.85

     exc-cor stress (kbar)   -816.10      0.00      0.00
                                0.00   -816.10      0.00
                                0.00      0.00   -816.10

     corecor stress (kbar)      0.00      0.00      0.00
                                0.00      0.00      0.00
                                0.00      0.00      0.00

     ewald   stress (kbar)  -3144.45      0.00      0.00
                                0.00  -3144.45      0.00
                                0.00      0.00  -3144.45

     hubbard stress (kbar)      0.00      0.00      0.00
                                0.00      0.00      0.00
                                0.00      0.00      0.00

     london  stress (kbar)      0.00      0.00      0.00
                                0.00      0.00      0.00
                                0.00      0.00      0.00

     dft-nl  stress (kbar)      0.00      0.00      0.00
                                0.00      0.00      0.00
                                0.00      0.00      0.00



     Writing output data file Si_e15.0_k8_nb50_gamma.save

     init_run     :      1.54s CPU      1.76s WALL (       1 calls)
     electrons    :     41.92s CPU     43.61s WALL (       1 calls)
     forces       :      0.08s CPU      0.12s WALL (       1 calls)
     stress       :      0.23s CPU      0.26s WALL (       1 calls)

     Called by init_run:
     wfcinit      :      1.47s CPU      1.62s WALL (       1 calls)
     potinit      :      0.01s CPU      0.02s WALL (       1 calls)

     Called by electrons:
     c_bands      :     38.82s CPU     40.40s WALL (       6 calls)
     sum_band     :      3.07s CPU      3.16s WALL (       6 calls)
     v_of_rho     :      0.02s CPU      0.02s WALL (       6 calls)
     v_h          :      0.01s CPU      0.00s WALL (       6 calls)
     v_xc         :      0.01s CPU      0.01s WALL (       6 calls)
     mix_rho      :      0.00s CPU      0.02s WALL (       6 calls)

     Called by c_bands:
     init_us_2    :      0.12s CPU      0.10s WALL (     435 calls)
     cegterg      :     38.65s CPU     40.18s WALL (     174 calls)

     Called by sum_band:

     Called by *egterg:
     h_psi        :     16.40s CPU     16.92s WALL (     713 calls)
     g_psi        :      0.12s CPU      0.13s WALL (     510 calls)
     cdiaghg      :     15.41s CPU     15.89s WALL (     655 calls)
     cegterg:over :      3.02s CPU      3.24s WALL (     510 calls)
     cegterg:upda :      1.96s CPU      2.11s WALL (     510 calls)
     cegterg:last :      1.19s CPU      1.16s WALL (     202 calls)

     Called by h_psi:
     h_psi:vloc   :     15.51s CPU     15.89s WALL (     713 calls)
     h_psi:vnl    :      0.78s CPU      0.92s WALL (     713 calls)
     add_vuspsi   :      0.37s CPU      0.38s WALL (     713 calls)

     General routines
     calbec       :      0.42s CPU      0.59s WALL (     771 calls)
     fft          :      0.02s CPU      0.06s WALL (      30 calls)
     fftw         :     16.62s CPU     16.95s WALL (   55878 calls)
     davcio       :      0.16s CPU      0.23s WALL (     638 calls)

     Parallel routines

     PWSCF        :    44.17s CPU        46.32s WALL


   This run was terminated on:  16:54:30   7Apr2012            

=------------------------------------------------------------------------------=
   JOB DONE.
=------------------------------------------------------------------------------=
