
     Program PWSCF v.4.3.2      starts on 27Mar2012 at 15: 2:31 

     This program is part of the open-source Quantum ESPRESSO suite
     for quantum simulation of materials; please cite
         "P. Giannozzi et al., J. Phys.:Condens. Matter 21 395502 (2009);
          URL http://www.quantum-espresso.org", 
     in publications or presentations arising from this work. More details at
     http://www.quantum-espresso.org/wiki/index.php/Citing_Quantum-ESPRESSO

     Parallel version (MPI), running on     1 processors

     Current dimensions of program PWSCF are:
     Max number of different atomic species (ntypx) = 10
     Max number of k-points (npk) =  40000
     Max angular momentum in pseudopotentials (lmaxx) =  3
     Waiting for input...
     Reading input from stdin

     Subspace diagonalization in iterative solution of the eigenvalue problem:
     a serial algorithm will be used


     G-vector sticks info
     --------------------
     sticks:   dense  smooth     PW     G-vecs:    dense   smooth      PW
     Sum         211     211     85                 2085     2085     531



     bravais-lattice index     =            2
     lattice parameter (alat)  =      10.1830  a.u.
     unit-cell volume          =     263.9777 (a.u.)^3
     number of atoms/cell      =            2
     number of atomic types    =            1
     number of electrons       =         8.00
     number of Kohn-Sham states=           10
     kinetic-energy cutoff     =      15.0000  Ry
     charge density cutoff     =      60.0000  Ry
     convergence threshold     =      1.0E-08
     mixing beta               =       0.7000
     number of iterations used =            8  plain     mixing
     Exchange-correlation      =  SLA  PZ   NOGX NOGC ( 1 1 0 0 0)
     EXX-fraction              =        0.00

     celldm(1)=  10.183000  celldm(2)=   0.000000  celldm(3)=   0.000000
     celldm(4)=   0.000000  celldm(5)=   0.000000  celldm(6)=   0.000000

     crystal axes: (cart. coord. in units of alat)
               a(1) = (  -0.500000   0.000000   0.500000 )  
               a(2) = (   0.000000   0.500000   0.500000 )  
               a(3) = (  -0.500000   0.500000   0.000000 )  

     reciprocal axes: (cart. coord. in units 2 pi/alat)
               b(1) = ( -1.000000 -1.000000  1.000000 )  
               b(2) = (  1.000000  1.000000  1.000000 )  
               b(3) = ( -1.000000  1.000000 -1.000000 )  


     PseudoPot. # 1 for Si read from file:
     /home/dsangalli/Personal_files/Workshop/2012_Losanna_Cecam/trunk/GW_tutorial/Si/gs/pwscf/psps/Si.vbc.UPF
     MD5 check sum: bcd8ae23180a2f07cc8655fe7dcd9644
     Pseudo is Norm-conserving, Zval =  4.0
     Generated by new atomic code, or converted to UPF format
     Using radial grid of  431 points,  2 beta functions with: 
                l(1) =   0
                l(2) =   1

     atomic species   valence    mass     pseudopotential
        Si             4.00    28.08600     Si( 1.00)

     24 Sym.Ops. (no inversion)

                                    s                        frac. trans.

      isym =  1     identity                                     

 cryst.   s( 1) = (     1          0          0      )    f =(  0.0000000 )
                  (     0          1          0      )       (  0.0000000 )
                  (     0          0          1      )       (  0.0000000 )

 cart.    s( 1) = (  1.0000000  0.0000000  0.0000000 )    f =(  0.0000000 )
                  (  0.0000000  1.0000000  0.0000000 )       (  0.0000000 )
                  (  0.0000000  0.0000000  1.0000000 )       (  0.0000000 )


      isym =  2     180 deg rotation - cart. axis [0,0,1]        

 cryst.   s( 2) = (     0          1         -1      )    f =(  0.0000000 )
                  (     1          0         -1      )       (  0.0000000 )
                  (     0          0         -1      )       (  0.0000000 )

 cart.    s( 2) = ( -1.0000000  0.0000000  0.0000000 )    f =(  0.0000000 )
                  (  0.0000000 -1.0000000  0.0000000 )       (  0.0000000 )
                  (  0.0000000  0.0000000  1.0000000 )       (  0.0000000 )


      isym =  3     180 deg rotation - cart. axis [0,1,0]        

 cryst.   s( 3) = (    -1          0          0      )    f =(  0.0000000 )
                  (    -1          0          1      )       (  0.0000000 )
                  (    -1          1          0      )       (  0.0000000 )

 cart.    s( 3) = ( -1.0000000  0.0000000  0.0000000 )    f =(  0.0000000 )
                  (  0.0000000  1.0000000  0.0000000 )       (  0.0000000 )
                  (  0.0000000  0.0000000 -1.0000000 )       (  0.0000000 )


      isym =  4     180 deg rotation - cart. axis [1,0,0]        

 cryst.   s( 4) = (     0         -1          1      )    f =(  0.0000000 )
                  (     0         -1          0      )       (  0.0000000 )
                  (     1         -1          0      )       (  0.0000000 )

 cart.    s( 4) = (  1.0000000  0.0000000  0.0000000 )    f =(  0.0000000 )
                  (  0.0000000 -1.0000000  0.0000000 )       (  0.0000000 )
                  (  0.0000000  0.0000000 -1.0000000 )       (  0.0000000 )


      isym =  5     120 deg rotation - cart. axis [-1,-1,-1]     

 cryst.   s( 5) = (    -1          0          1      )    f =(  0.0000000 )
                  (    -1          1          0      )       (  0.0000000 )
                  (    -1          0          0      )       (  0.0000000 )

 cart.    s( 5) = (  0.0000000  1.0000000  0.0000000 )    f =(  0.0000000 )
                  (  0.0000000  0.0000000  1.0000000 )       (  0.0000000 )
                  (  1.0000000  0.0000000  0.0000000 )       (  0.0000000 )


      isym =  6     120 deg rotation - cart. axis [-1,1,1]       

 cryst.   s( 6) = (     0          1          0      )    f =(  0.0000000 )
                  (     0          0          1      )       (  0.0000000 )
                  (     1          0          0      )       (  0.0000000 )

 cart.    s( 6) = (  0.0000000 -1.0000000  0.0000000 )    f =(  0.0000000 )
                  (  0.0000000  0.0000000  1.0000000 )       (  0.0000000 )
                  ( -1.0000000  0.0000000  0.0000000 )       (  0.0000000 )


      isym =  7     120 deg rotation - cart. axis [1,1,-1]       

 cryst.   s( 7) = (     1          0         -1      )    f =(  0.0000000 )
                  (     0          0         -1      )       (  0.0000000 )
                  (     0          1         -1      )       (  0.0000000 )

 cart.    s( 7) = (  0.0000000  1.0000000  0.0000000 )    f =(  0.0000000 )
                  (  0.0000000  0.0000000 -1.0000000 )       (  0.0000000 )
                  ( -1.0000000  0.0000000  0.0000000 )       (  0.0000000 )


      isym =  8     120 deg rotation - cart. axis [1,-1,1]       

 cryst.   s( 8) = (     0         -1          0      )    f =(  0.0000000 )
                  (     1         -1          0      )       (  0.0000000 )
                  (     0         -1          1      )       (  0.0000000 )

 cart.    s( 8) = (  0.0000000 -1.0000000  0.0000000 )    f =(  0.0000000 )
                  (  0.0000000  0.0000000 -1.0000000 )       (  0.0000000 )
                  (  1.0000000  0.0000000  0.0000000 )       (  0.0000000 )


      isym =  9     120 deg rotation - cart. axis [1,1,1]        

 cryst.   s( 9) = (     0          0         -1      )    f =(  0.0000000 )
                  (     0          1         -1      )       (  0.0000000 )
                  (     1          0         -1      )       (  0.0000000 )

 cart.    s( 9) = (  0.0000000  0.0000000  1.0000000 )    f =(  0.0000000 )
                  (  1.0000000  0.0000000  0.0000000 )       (  0.0000000 )
                  (  0.0000000  1.0000000  0.0000000 )       (  0.0000000 )


      isym = 10     120 deg rotation - cart. axis [-1,1,-1]      

 cryst.   s(10) = (    -1          1          0      )    f =(  0.0000000 )
                  (    -1          0          0      )       (  0.0000000 )
                  (    -1          0          1      )       (  0.0000000 )

 cart.    s(10) = (  0.0000000  0.0000000  1.0000000 )    f =(  0.0000000 )
                  ( -1.0000000  0.0000000  0.0000000 )       (  0.0000000 )
                  (  0.0000000 -1.0000000  0.0000000 )       (  0.0000000 )


      isym = 11     120 deg rotation - cart. axis [1,-1,-1]      

 cryst.   s(11) = (     0          0          1      )    f =(  0.0000000 )
                  (     1          0          0      )       (  0.0000000 )
                  (     0          1          0      )       (  0.0000000 )

 cart.    s(11) = (  0.0000000  0.0000000 -1.0000000 )    f =(  0.0000000 )
                  ( -1.0000000  0.0000000  0.0000000 )       (  0.0000000 )
                  (  0.0000000  1.0000000  0.0000000 )       (  0.0000000 )


      isym = 12     120 deg rotation - cart. axis [-1,-1,1]      

 cryst.   s(12) = (     1         -1          0      )    f =(  0.0000000 )
                  (     0         -1          1      )       (  0.0000000 )
                  (     0         -1          0      )       (  0.0000000 )

 cart.    s(12) = (  0.0000000  0.0000000 -1.0000000 )    f =(  0.0000000 )
                  (  1.0000000  0.0000000  0.0000000 )       (  0.0000000 )
                  (  0.0000000 -1.0000000  0.0000000 )       (  0.0000000 )


      isym = 13     inv. 180 deg rotation - cart. axis [1,1,0]   

 cryst.   s(13) = (     0          1          0      )    f =(  0.0000000 )
                  (     1          0          0      )       (  0.0000000 )
                  (     0          0          1      )       (  0.0000000 )

 cart.    s(13) = (  0.0000000 -1.0000000  0.0000000 )    f =(  0.0000000 )
                  ( -1.0000000  0.0000000  0.0000000 )       (  0.0000000 )
                  (  0.0000000  0.0000000  1.0000000 )       (  0.0000000 )


      isym = 14     inv. 180 deg rotation - cart. axis [1,-1,0]  

 cryst.   s(14) = (     1          0         -1      )    f =(  0.0000000 )
                  (     0          1         -1      )       (  0.0000000 )
                  (     0          0         -1      )       (  0.0000000 )

 cart.    s(14) = (  0.0000000  1.0000000  0.0000000 )    f =(  0.0000000 )
                  (  1.0000000  0.0000000  0.0000000 )       (  0.0000000 )
                  (  0.0000000  0.0000000  1.0000000 )       (  0.0000000 )


      isym = 15     inv.  90 deg rotation - cart. axis [0,0,-1]  

 cryst.   s(15) = (     0         -1          0      )    f =(  0.0000000 )
                  (     0         -1          1      )       (  0.0000000 )
                  (     1         -1          0      )       (  0.0000000 )

 cart.    s(15) = (  0.0000000 -1.0000000  0.0000000 )    f =(  0.0000000 )
                  (  1.0000000  0.0000000  0.0000000 )       (  0.0000000 )
                  (  0.0000000  0.0000000 -1.0000000 )       (  0.0000000 )


      isym = 16     inv.  90 deg rotation - cart. axis [0,0,1]   

 cryst.   s(16) = (    -1          0          1      )    f =(  0.0000000 )
                  (    -1          0          0      )       (  0.0000000 )
                  (    -1          1          0      )       (  0.0000000 )

 cart.    s(16) = (  0.0000000  1.0000000  0.0000000 )    f =(  0.0000000 )
                  ( -1.0000000  0.0000000  0.0000000 )       (  0.0000000 )
                  (  0.0000000  0.0000000 -1.0000000 )       (  0.0000000 )


      isym = 17     inv. 180 deg rotation - cart. axis [1,0,1]   

 cryst.   s(17) = (     1          0          0      )    f =(  0.0000000 )
                  (     0          0          1      )       (  0.0000000 )
                  (     0          1          0      )       (  0.0000000 )

 cart.    s(17) = (  0.0000000  0.0000000 -1.0000000 )    f =(  0.0000000 )
                  (  0.0000000  1.0000000  0.0000000 )       (  0.0000000 )
                  ( -1.0000000  0.0000000  0.0000000 )       (  0.0000000 )


      isym = 18     inv. 180 deg rotation - cart. axis [-1,0,1]  

 cryst.   s(18) = (    -1          0          0      )    f =(  0.0000000 )
                  (    -1          1          0      )       (  0.0000000 )
                  (    -1          0          1      )       (  0.0000000 )

 cart.    s(18) = (  0.0000000  0.0000000  1.0000000 )    f =(  0.0000000 )
                  (  0.0000000  1.0000000  0.0000000 )       (  0.0000000 )
                  (  1.0000000  0.0000000  0.0000000 )       (  0.0000000 )


      isym = 19     inv.  90 deg rotation - cart. axis [0,1,0]   

 cryst.   s(19) = (     0         -1          1      )    f =(  0.0000000 )
                  (     1         -1          0      )       (  0.0000000 )
                  (     0         -1          0      )       (  0.0000000 )

 cart.    s(19) = (  0.0000000  0.0000000 -1.0000000 )    f =(  0.0000000 )
                  (  0.0000000 -1.0000000  0.0000000 )       (  0.0000000 )
                  (  1.0000000  0.0000000  0.0000000 )       (  0.0000000 )


      isym = 20     inv.  90 deg rotation - cart. axis [0,-1,0]  

 cryst.   s(20) = (     0          1         -1      )    f =(  0.0000000 )
                  (     0          0         -1      )       (  0.0000000 )
                  (     1          0         -1      )       (  0.0000000 )

 cart.    s(20) = (  0.0000000  0.0000000  1.0000000 )    f =(  0.0000000 )
                  (  0.0000000 -1.0000000  0.0000000 )       (  0.0000000 )
                  ( -1.0000000  0.0000000  0.0000000 )       (  0.0000000 )


      isym = 21     inv. 180 deg rotation - cart. axis [0,1,1]   

 cryst.   s(21) = (     1         -1          0      )    f =(  0.0000000 )
                  (     0         -1          0      )       (  0.0000000 )
                  (     0         -1          1      )       (  0.0000000 )

 cart.    s(21) = (  1.0000000  0.0000000  0.0000000 )    f =(  0.0000000 )
                  (  0.0000000  0.0000000 -1.0000000 )       (  0.0000000 )
                  (  0.0000000 -1.0000000  0.0000000 )       (  0.0000000 )


      isym = 22     inv. 180 deg rotation - cart. axis [0,1,-1]  

 cryst.   s(22) = (     0          0          1      )    f =(  0.0000000 )
                  (     0          1          0      )       (  0.0000000 )
                  (     1          0          0      )       (  0.0000000 )

 cart.    s(22) = (  1.0000000  0.0000000  0.0000000 )    f =(  0.0000000 )
                  (  0.0000000  0.0000000  1.0000000 )       (  0.0000000 )
                  (  0.0000000  1.0000000  0.0000000 )       (  0.0000000 )


      isym = 23     inv.  90 deg rotation - cart. axis [-1,0,0]  

 cryst.   s(23) = (     0          0         -1      )    f =(  0.0000000 )
                  (     1          0         -1      )       (  0.0000000 )
                  (     0          1         -1      )       (  0.0000000 )

 cart.    s(23) = ( -1.0000000  0.0000000  0.0000000 )    f =(  0.0000000 )
                  (  0.0000000  0.0000000 -1.0000000 )       (  0.0000000 )
                  (  0.0000000  1.0000000  0.0000000 )       (  0.0000000 )


      isym = 24     inv.  90 deg rotation - cart. axis [1,0,0]   

 cryst.   s(24) = (    -1          1          0      )    f =(  0.0000000 )
                  (    -1          0          1      )       (  0.0000000 )
                  (    -1          0          0      )       (  0.0000000 )

 cart.    s(24) = ( -1.0000000  0.0000000  0.0000000 )    f =(  0.0000000 )
                  (  0.0000000  0.0000000  1.0000000 )       (  0.0000000 )
                  (  0.0000000 -1.0000000  0.0000000 )       (  0.0000000 )


     point group T_d (-43m) 
     there are  5 classes
     the character table:

       E     8C3   3C2   6S4   6s_d 
A_1    1.00  1.00  1.00  1.00  1.00
A_2    1.00  1.00  1.00 -1.00 -1.00
E      2.00 -1.00  2.00  0.00  0.00
T_1    3.00  0.00 -1.00  1.00 -1.00
T_2    3.00  0.00 -1.00 -1.00  1.00

     the symmetry operations in each class:
     E        1
     3C2      2    3    4
     8C3      5    7    8    6   12    9   10   11
     6s_d    13   14   17   18   21   22
     6S4     15   16   20   19   23   24

   Cartesian axes

     site n.     atom                  positions (alat units)
         1           Si  tau(   1) = (   0.0000000   0.0000000   0.0000000  )
         2           Si  tau(   2) = (   0.2500000   0.2500000   0.2500000  )

   Crystallographic axes

     site n.     atom                  positions (cryst. coord.)
         1           Si  tau(   1) = (  0.0000000  0.0000000  0.0000000  )
         2           Si  tau(   2) = ( -0.2500000  0.7500000 -0.2500000  )

     number of k points=    85
                       cart. coord. in units 2pi/alat
        k(    1) = (  -0.0555556   0.0555556   0.0555556), wk =   0.0054870
        k(    2) = (  -0.1666667   0.1666667  -0.0555556), wk =   0.0164609
        k(    3) = (  -0.2777778   0.2777778  -0.1666667), wk =   0.0164609
        k(    4) = (  -0.3888889   0.3888889  -0.2777778), wk =   0.0164609
        k(    5) = (   0.5000000  -0.5000000   0.6111111), wk =   0.0164609
        k(    6) = (   0.3888889  -0.3888889   0.5000000), wk =   0.0164609
        k(    7) = (   0.2777778  -0.2777778   0.3888889), wk =   0.0164609
        k(    8) = (   0.1666667  -0.1666667   0.2777778), wk =   0.0164609
        k(    9) = (   0.0555556  -0.0555556   0.1666667), wk =   0.0164609
        k(   10) = (  -0.0555556   0.2777778   0.0555556), wk =   0.0164609
        k(   11) = (  -0.1666667   0.3888889  -0.0555556), wk =   0.0329218
        k(   12) = (  -0.2777778   0.5000000  -0.1666667), wk =   0.0329218
        k(   13) = (   0.6111111  -0.3888889   0.7222222), wk =   0.0329218
        k(   14) = (   0.5000000  -0.2777778   0.6111111), wk =   0.0329218
        k(   15) = (   0.3888889  -0.1666667   0.5000000), wk =   0.0329218
        k(   16) = (   0.2777778  -0.0555556   0.3888889), wk =   0.0329218
        k(   17) = (   0.1666667   0.0555556   0.2777778), wk =   0.0329218
        k(   18) = (  -0.0555556   0.5000000   0.0555556), wk =   0.0164609
        k(   19) = (  -0.1666667   0.6111111  -0.0555556), wk =   0.0329218
        k(   20) = (   0.7222222  -0.2777778   0.8333333), wk =   0.0329218
        k(   21) = (   0.6111111  -0.1666667   0.7222222), wk =   0.0329218
        k(   22) = (   0.5000000  -0.0555556   0.6111111), wk =   0.0329218
        k(   23) = (   0.3888889   0.0555556   0.5000000), wk =   0.0329218
        k(   24) = (   0.2777778   0.1666667   0.3888889), wk =   0.0329218
        k(   25) = (  -0.0555556   0.7222222   0.0555556), wk =   0.0164609
        k(   26) = (   0.8333333  -0.1666667   0.9444444), wk =   0.0329218
        k(   27) = (   0.7222222  -0.0555556   0.8333333), wk =   0.0329218
        k(   28) = (   0.6111111   0.0555556   0.7222222), wk =   0.0329218
        k(   29) = (   0.5000000   0.1666667   0.6111111), wk =   0.0329218
        k(   30) = (   0.3888889   0.2777778   0.5000000), wk =   0.0329218
        k(   31) = (  -0.0555556  -1.0555556   0.0555556), wk =   0.0164609
        k(   32) = (  -0.1666667  -0.9444444  -0.0555556), wk =   0.0329218
        k(   33) = (  -0.2777778  -0.8333333  -0.1666667), wk =   0.0329218
        k(   34) = (  -0.3888889  -0.7222222  -0.2777778), wk =   0.0329218
        k(   35) = (  -0.5000000  -0.6111111  -0.3888889), wk =   0.0164609
        k(   36) = (  -0.0555556  -0.8333333   0.0555556), wk =   0.0164609
        k(   37) = (  -0.1666667  -0.7222222  -0.0555556), wk =   0.0329218
        k(   38) = (  -0.2777778  -0.6111111  -0.1666667), wk =   0.0329218
        k(   39) = (  -0.0555556  -0.6111111   0.0555556), wk =   0.0164609
        k(   40) = (  -0.1666667  -0.5000000  -0.0555556), wk =   0.0329218
        k(   41) = (  -0.0555556  -0.3888889   0.0555556), wk =   0.0164609
        k(   42) = (  -0.1666667   0.1666667   0.1666667), wk =   0.0054870
        k(   43) = (  -0.2777778   0.2777778   0.0555556), wk =   0.0164609
        k(   44) = (  -0.3888889   0.3888889  -0.0555556), wk =   0.0164609
        k(   45) = (   0.5000000  -0.5000000   0.8333333), wk =   0.0164609
        k(   46) = (   0.3888889  -0.3888889   0.7222222), wk =   0.0164609
        k(   47) = (   0.2777778  -0.2777778   0.6111111), wk =   0.0164609
        k(   48) = (   0.1666667  -0.1666667   0.5000000), wk =   0.0164609
        k(   49) = (  -0.1666667   0.3888889   0.1666667), wk =   0.0164609
        k(   50) = (  -0.2777778   0.5000000   0.0555556), wk =   0.0329218
        k(   51) = (   0.6111111  -0.3888889   0.9444444), wk =   0.0329218
        k(   52) = (   0.5000000  -0.2777778   0.8333333), wk =   0.0329218
        k(   53) = (   0.3888889  -0.1666667   0.7222222), wk =   0.0329218
        k(   54) = (   0.2777778  -0.0555556   0.6111111), wk =   0.0329218
        k(   55) = (  -0.1666667   0.6111111   0.1666667), wk =   0.0164609
        k(   56) = (   0.7222222  -0.2777778   1.0555556), wk =   0.0329218
        k(   57) = (   0.6111111  -0.1666667   0.9444444), wk =   0.0329218
        k(   58) = (   0.5000000  -0.0555556   0.8333333), wk =   0.0329218
        k(   59) = (   0.3888889   0.0555556   0.7222222), wk =   0.0329218
        k(   60) = (  -0.1666667  -1.1666667   0.1666667), wk =   0.0164609
        k(   61) = (  -0.2777778  -1.0555556   0.0555556), wk =   0.0329218
        k(   62) = (  -0.3888889  -0.9444444  -0.0555556), wk =   0.0329218
        k(   63) = (  -0.5000000  -0.8333333  -0.1666667), wk =   0.0164609
        k(   64) = (  -0.1666667  -0.9444444   0.1666667), wk =   0.0164609
        k(   65) = (  -0.2777778  -0.8333333   0.0555556), wk =   0.0329218
        k(   66) = (  -0.1666667  -0.7222222   0.1666667), wk =   0.0164609
        k(   67) = (  -0.2777778   0.2777778   0.2777778), wk =   0.0054870
        k(   68) = (  -0.3888889   0.3888889   0.1666667), wk =   0.0164609
        k(   69) = (   0.5000000  -0.5000000   1.0555556), wk =   0.0164609
        k(   70) = (   0.3888889  -0.3888889   0.9444444), wk =   0.0164609
        k(   71) = (   0.2777778  -0.2777778   0.8333333), wk =   0.0164609
        k(   72) = (  -0.2777778   0.5000000   0.2777778), wk =   0.0164609
        k(   73) = (   0.6111111  -0.3888889   1.1666667), wk =   0.0329218
        k(   74) = (   0.5000000  -0.2777778   1.0555556), wk =   0.0329218
        k(   75) = (   0.3888889  -0.1666667   0.9444444), wk =   0.0329218
        k(   76) = (  -0.2777778  -1.2777778   0.2777778), wk =   0.0164609
        k(   77) = (  -0.3888889  -1.1666667   0.1666667), wk =   0.0329218
        k(   78) = (  -0.5000000  -1.0555556   0.0555556), wk =   0.0164609
        k(   79) = (  -0.2777778  -1.0555556   0.2777778), wk =   0.0164609
        k(   80) = (  -0.3888889   0.3888889   0.3888889), wk =   0.0054870
        k(   81) = (   0.5000000  -0.5000000   1.2777778), wk =   0.0164609
        k(   82) = (   0.3888889  -0.3888889   1.1666667), wk =   0.0164609
        k(   83) = (  -0.3888889  -1.3888889   0.3888889), wk =   0.0164609
        k(   84) = (  -0.5000000  -1.2777778   0.2777778), wk =   0.0164609
        k(   85) = (   0.5000000  -0.5000000  -0.5000000), wk =   0.0027435

                       cryst. coord.
        k(    1) = (   0.0555556   0.0555556   0.0555556), wk =   0.0054870
        k(    2) = (   0.0555556   0.0555556   0.1666667), wk =   0.0164609
        k(    3) = (   0.0555556   0.0555556   0.2777778), wk =   0.0164609
        k(    4) = (   0.0555556   0.0555556   0.3888889), wk =   0.0164609
        k(    5) = (   0.0555556   0.0555556  -0.5000000), wk =   0.0164609
        k(    6) = (   0.0555556   0.0555556  -0.3888889), wk =   0.0164609
        k(    7) = (   0.0555556   0.0555556  -0.2777778), wk =   0.0164609
        k(    8) = (   0.0555556   0.0555556  -0.1666667), wk =   0.0164609
        k(    9) = (   0.0555556   0.0555556  -0.0555556), wk =   0.0164609
        k(   10) = (   0.0555556   0.1666667   0.1666667), wk =   0.0164609
        k(   11) = (   0.0555556   0.1666667   0.2777778), wk =   0.0329218
        k(   12) = (   0.0555556   0.1666667   0.3888889), wk =   0.0329218
        k(   13) = (   0.0555556   0.1666667  -0.5000000), wk =   0.0329218
        k(   14) = (   0.0555556   0.1666667  -0.3888889), wk =   0.0329218
        k(   15) = (   0.0555556   0.1666667  -0.2777778), wk =   0.0329218
        k(   16) = (   0.0555556   0.1666667  -0.1666667), wk =   0.0329218
        k(   17) = (   0.0555556   0.1666667  -0.0555556), wk =   0.0329218
        k(   18) = (   0.0555556   0.2777778   0.2777778), wk =   0.0164609
        k(   19) = (   0.0555556   0.2777778   0.3888889), wk =   0.0329218
        k(   20) = (   0.0555556   0.2777778  -0.5000000), wk =   0.0329218
        k(   21) = (   0.0555556   0.2777778  -0.3888889), wk =   0.0329218
        k(   22) = (   0.0555556   0.2777778  -0.2777778), wk =   0.0329218
        k(   23) = (   0.0555556   0.2777778  -0.1666667), wk =   0.0329218
        k(   24) = (   0.0555556   0.2777778  -0.0555556), wk =   0.0329218
        k(   25) = (   0.0555556   0.3888889   0.3888889), wk =   0.0164609
        k(   26) = (   0.0555556   0.3888889  -0.5000000), wk =   0.0329218
        k(   27) = (   0.0555556   0.3888889  -0.3888889), wk =   0.0329218
        k(   28) = (   0.0555556   0.3888889  -0.2777778), wk =   0.0329218
        k(   29) = (   0.0555556   0.3888889  -0.1666667), wk =   0.0329218
        k(   30) = (   0.0555556   0.3888889  -0.0555556), wk =   0.0329218
        k(   31) = (   0.0555556  -0.5000000  -0.5000000), wk =   0.0164609
        k(   32) = (   0.0555556  -0.5000000  -0.3888889), wk =   0.0329218
        k(   33) = (   0.0555556  -0.5000000  -0.2777778), wk =   0.0329218
        k(   34) = (   0.0555556  -0.5000000  -0.1666667), wk =   0.0329218
        k(   35) = (   0.0555556  -0.5000000  -0.0555556), wk =   0.0164609
        k(   36) = (   0.0555556  -0.3888889  -0.3888889), wk =   0.0164609
        k(   37) = (   0.0555556  -0.3888889  -0.2777778), wk =   0.0329218
        k(   38) = (   0.0555556  -0.3888889  -0.1666667), wk =   0.0329218
        k(   39) = (   0.0555556  -0.2777778  -0.2777778), wk =   0.0164609
        k(   40) = (   0.0555556  -0.2777778  -0.1666667), wk =   0.0329218
        k(   41) = (   0.0555556  -0.1666667  -0.1666667), wk =   0.0164609
        k(   42) = (   0.1666667   0.1666667   0.1666667), wk =   0.0054870
        k(   43) = (   0.1666667   0.1666667   0.2777778), wk =   0.0164609
        k(   44) = (   0.1666667   0.1666667   0.3888889), wk =   0.0164609
        k(   45) = (   0.1666667   0.1666667  -0.5000000), wk =   0.0164609
        k(   46) = (   0.1666667   0.1666667  -0.3888889), wk =   0.0164609
        k(   47) = (   0.1666667   0.1666667  -0.2777778), wk =   0.0164609
        k(   48) = (   0.1666667   0.1666667  -0.1666667), wk =   0.0164609
        k(   49) = (   0.1666667   0.2777778   0.2777778), wk =   0.0164609
        k(   50) = (   0.1666667   0.2777778   0.3888889), wk =   0.0329218
        k(   51) = (   0.1666667   0.2777778  -0.5000000), wk =   0.0329218
        k(   52) = (   0.1666667   0.2777778  -0.3888889), wk =   0.0329218
        k(   53) = (   0.1666667   0.2777778  -0.2777778), wk =   0.0329218
        k(   54) = (   0.1666667   0.2777778  -0.1666667), wk =   0.0329218
        k(   55) = (   0.1666667   0.3888889   0.3888889), wk =   0.0164609
        k(   56) = (   0.1666667   0.3888889  -0.5000000), wk =   0.0329218
        k(   57) = (   0.1666667   0.3888889  -0.3888889), wk =   0.0329218
        k(   58) = (   0.1666667   0.3888889  -0.2777778), wk =   0.0329218
        k(   59) = (   0.1666667   0.3888889  -0.1666667), wk =   0.0329218
        k(   60) = (   0.1666667  -0.5000000  -0.5000000), wk =   0.0164609
        k(   61) = (   0.1666667  -0.5000000  -0.3888889), wk =   0.0329218
        k(   62) = (   0.1666667  -0.5000000  -0.2777778), wk =   0.0329218
        k(   63) = (   0.1666667  -0.5000000  -0.1666667), wk =   0.0164609
        k(   64) = (   0.1666667  -0.3888889  -0.3888889), wk =   0.0164609
        k(   65) = (   0.1666667  -0.3888889  -0.2777778), wk =   0.0329218
        k(   66) = (   0.1666667  -0.2777778  -0.2777778), wk =   0.0164609
        k(   67) = (   0.2777778   0.2777778   0.2777778), wk =   0.0054870
        k(   68) = (   0.2777778   0.2777778   0.3888889), wk =   0.0164609
        k(   69) = (   0.2777778   0.2777778  -0.5000000), wk =   0.0164609
        k(   70) = (   0.2777778   0.2777778  -0.3888889), wk =   0.0164609
        k(   71) = (   0.2777778   0.2777778  -0.2777778), wk =   0.0164609
        k(   72) = (   0.2777778   0.3888889   0.3888889), wk =   0.0164609
        k(   73) = (   0.2777778   0.3888889  -0.5000000), wk =   0.0329218
        k(   74) = (   0.2777778   0.3888889  -0.3888889), wk =   0.0329218
        k(   75) = (   0.2777778   0.3888889  -0.2777778), wk =   0.0329218
        k(   76) = (   0.2777778  -0.5000000  -0.5000000), wk =   0.0164609
        k(   77) = (   0.2777778  -0.5000000  -0.3888889), wk =   0.0329218
        k(   78) = (   0.2777778  -0.5000000  -0.2777778), wk =   0.0164609
        k(   79) = (   0.2777778  -0.3888889  -0.3888889), wk =   0.0164609
        k(   80) = (   0.3888889   0.3888889   0.3888889), wk =   0.0054870
        k(   81) = (   0.3888889   0.3888889  -0.5000000), wk =   0.0164609
        k(   82) = (   0.3888889   0.3888889  -0.3888889), wk =   0.0164609
        k(   83) = (   0.3888889  -0.5000000  -0.5000000), wk =   0.0164609
        k(   84) = (   0.3888889  -0.5000000  -0.3888889), wk =   0.0164609
        k(   85) = (  -0.5000000  -0.5000000  -0.5000000), wk =   0.0027435

     Dense  grid:     2085 G-vectors     FFT dimensions: (  18,  18,  18)

     Largest allocated arrays     est. size (Mb)     dimensions
        Kohn-Sham Wavefunctions         0.04 Mb     (    270,   10)
        NL pseudopotentials             0.03 Mb     (    270,    8)
        Each V/rho on FFT grid          0.09 Mb     (   5832)
        Each G-vector array             0.02 Mb     (   2085)
        G-vector shells                 0.00 Mb     (     54)
     Largest temporary arrays     est. size (Mb)     dimensions
        Auxiliary wavefunctions         0.16 Mb     (    270,   40)
        Each subspace H/S matrix        0.02 Mb     (  40,  40)
        Each <psi_i|beta_j> matrix      0.00 Mb     (      8,   10)
        Arrays for rho mixing           0.71 Mb     (   5832,   8)

     Initial potential from superposition of free atoms

     starting charge    7.99901, renormalised to    8.00000
     Starting wfc are    8 atomic +    2 random wfc

     total cpu time spent up to now is        1.0 secs

     per-process dynamical memory:     3.8 Mb

     Self-consistent Calculation

     iteration #  1     ecut=    15.00 Ry     beta=0.70
     Davidson diagonalization with overlap
     ethr =  1.00E-02,  avg # of iterations =  5.2

     Threshold (ethr) on eigenvalues was too large:
     Diagonalizing with lowered threshold

     Davidson diagonalization with overlap
     ethr =  7.84E-04,  avg # of iterations =  1.9

     total cpu time spent up to now is        8.5 secs

     total energy              =     -15.83065171 Ry
     Harris-Foulkes estimate   =     -15.85206756 Ry
     estimated scf accuracy    <       0.06224840 Ry

     iteration #  2     ecut=    15.00 Ry     beta=0.70
     Davidson diagonalization with overlap
     ethr =  7.78E-04,  avg # of iterations =  1.6

     total cpu time spent up to now is       10.8 secs

     total energy              =     -15.83449177 Ry
     Harris-Foulkes estimate   =     -15.83470262 Ry
     estimated scf accuracy    <       0.00173289 Ry

     iteration #  3     ecut=    15.00 Ry     beta=0.70
     Davidson diagonalization with overlap
     ethr =  2.17E-05,  avg # of iterations =  3.6

     total cpu time spent up to now is       14.1 secs

     total energy              =     -15.83454180 Ry
     Harris-Foulkes estimate   =     -15.83454726 Ry
     estimated scf accuracy    <       0.00005744 Ry

     iteration #  4     ecut=    15.00 Ry     beta=0.70
     Davidson diagonalization with overlap
     ethr =  7.18E-07,  avg # of iterations =  2.7

     total cpu time spent up to now is       16.9 secs

     total energy              =     -15.83454383 Ry
     Harris-Foulkes estimate   =     -15.83454383 Ry
     estimated scf accuracy    <       0.00000004 Ry

     iteration #  5     ecut=    15.00 Ry     beta=0.70
     Davidson diagonalization with overlap
     ethr =  5.62E-10,  avg # of iterations =  6.1

     total cpu time spent up to now is       22.4 secs

     End of self-consistent calculation

          k =-0.0556 0.0556 0.0556 (   265 PWs)   bands (ev):

    -5.7250   5.8820   6.2422   6.2422   8.9604   8.9910   8.9910  10.1260
    14.0828  14.0828

     occupation numbers 
     0.0055   0.0055   0.0055   0.0055   0.0000   0.0000   0.0000   0.0000
     0.0000   0.0000

          k =-0.1667 0.1667-0.0556 (   269 PWs)   bands (ev):

    -5.5123   4.5726   5.5350   6.1469   9.0630   9.1920   9.4849  11.3175
    13.2960  13.9790

     occupation numbers 
     0.0165   0.0165   0.0165   0.0165   0.0000   0.0000   0.0000   0.0000
     0.0000   0.0000

          k =-0.2778 0.2778-0.1667 (   266 PWs)   bands (ev):

    -4.9798   2.5176   5.0616   5.7325   8.6889   9.6881  10.0216  12.7482
    13.1118  14.4758

     occupation numbers 
     0.0165   0.0165   0.0165   0.0165   0.0000   0.0000   0.0000   0.0000
     0.0000   0.0000

          k =-0.3889 0.3889-0.2778 (   260 PWs)   bands (ev):

    -4.1830   0.6377   4.7960   5.3349   8.3662   9.7976   9.9240  13.8896
    14.1505  15.2010

     occupation numbers 
     0.0165   0.0165   0.0165   0.0165   0.0000   0.0000   0.0000   0.0000
     0.0000   0.0000

          k = 0.5000-0.5000 0.6111 (   260 PWs)   bands (ev):

    -3.4131  -0.6402   4.7413   5.0662   8.2075   9.6665   9.7866  14.1000
    16.0609  16.3567

     occupation numbers 
     0.0165   0.0165   0.0165   0.0165   0.0000   0.0000   0.0000   0.0000
     0.0000   0.0000

          k = 0.3889-0.3889 0.5000 (   261 PWs)   bands (ev):

    -3.6205  -0.3309   4.8885   4.9770   8.2404   9.5926   9.9394  14.0149
    15.1769  16.5493

     occupation numbers 
     0.0165   0.0165   0.0165   0.0165   0.0000   0.0000   0.0000   0.0000
     0.0000   0.0000

          k = 0.2778-0.2778 0.3889 (   259 PWs)   bands (ev):

    -4.4683   1.2246   5.0905   5.2065   8.4575   9.6518  10.1945  13.0024
    14.7231  14.8177

     occupation numbers 
     0.0165   0.0165   0.0165   0.0165   0.0000   0.0000   0.0000   0.0000
     0.0000   0.0000

          k = 0.1667-0.1667 0.2778 (   270 PWs)   bands (ev):

    -5.1931   3.2043   5.4015   5.6470   8.7821   9.4486  10.1118  12.0928
    13.4028  14.0090

     occupation numbers 
     0.0165   0.0165   0.0165   0.0165   0.0000   0.0000   0.0000   0.0000
     0.0000   0.0000

          k = 0.0556-0.0556 0.1667 (   267 PWs)   bands (ev):

    -5.6183   5.2453   5.8653   6.0268   8.7407   9.3062   9.4934  10.7039
    13.4169  14.2221

     occupation numbers 
     0.0165   0.0165   0.0165   0.0165   0.0000   0.0000   0.0000   0.0000
     0.0000   0.0000

          k =-0.0556 0.2778 0.0556 (   266 PWs)   bands (ev):

    -5.3997   4.4746   5.3512   5.4719   8.3553   9.9928  10.2559  11.0913
    12.9721  14.5004

     occupation numbers 
     0.0165   0.0165   0.0165   0.0165   0.0000   0.0000   0.0000   0.0000
     0.0000   0.0000

          k =-0.1667 0.3889-0.0556 (   266 PWs)   bands (ev):

    -4.9709   3.0899   4.4748   5.2430   8.4655  10.1942  10.9405  10.9869
    13.7892  14.9823

     occupation numbers 
     0.0329   0.0329   0.0329   0.0329   0.0000   0.0000   0.0000   0.0000
     0.0000   0.0000

          k =-0.2778 0.5000-0.1667 (   261 PWs)   bands (ev):

    -4.2503   1.2748   4.0188   4.8278   8.7001  10.0848  11.1151  11.3959
    14.9752  16.2617

     occupation numbers 
     0.0329   0.0329   0.0329   0.0329   0.0000   0.0000   0.0000   0.0000
     0.0000   0.0000

          k = 0.6111-0.3889 0.7222 (   255 PWs)   bands (ev):

    -3.4011  -0.2264   3.7411   4.5983   8.7061   9.7869  10.9483  12.9939
    15.5198  16.6950

     occupation numbers 
     0.0329   0.0329   0.0329   0.0329   0.0000   0.0000   0.0000   0.0000
     0.0000   0.0000

          k = 0.5000-0.2778 0.6111 (   256 PWs)   bands (ev):

    -3.1957  -0.5263   3.5779   4.6928   8.8476   9.6247  10.8274  14.2068
    14.9021  15.9339

     occupation numbers 
     0.0329   0.0329   0.0329   0.0329   0.0000   0.0000   0.0000   0.0000
     0.0000   0.0000

          k = 0.3889-0.1667 0.5000 (   260 PWs)   bands (ev):

    -3.9694   0.7213   3.6069   5.0512   9.1249   9.6659  10.8448  12.4661
    14.2987  16.0865

     occupation numbers 
     0.0329   0.0329   0.0329   0.0329   0.0000   0.0000   0.0000   0.0000
     0.0000   0.0000

          k = 0.2778-0.0556 0.3889 (   265 PWs)   bands (ev):

    -4.7641   2.4578   3.9544   5.5306   9.2637   9.6777  10.6929  11.5074
    13.2358  15.8134

     occupation numbers 
     0.0329   0.0329   0.0329   0.0329   0.0000   0.0000   0.0000   0.0000
     0.0000   0.0000

          k = 0.1667 0.0556 0.2778 (   266 PWs)   bands (ev):

    -5.2957   3.8383   5.0100   5.8326   8.8525   9.5628  10.0985  11.6057
    13.0874  14.3104

     occupation numbers 
     0.0329   0.0329   0.0329   0.0329   0.0000   0.0000   0.0000   0.0000
     0.0000   0.0000

          k =-0.0556 0.5000 0.0556 (   262 PWs)   bands (ev):

    -4.6408   2.7096   4.3176   4.3848   7.5556   9.5407  11.9364  12.0697
    14.6839  15.4760

     occupation numbers 
     0.0165   0.0165   0.0165   0.0165   0.0000   0.0000   0.0000   0.0000
     0.0000   0.0000

          k =-0.1667 0.6111-0.0556 (   259 PWs)   bands (ev):

    -4.0136   1.5216   3.5459   4.0810   7.7758   9.1914  12.0177  12.9404
    15.7781  16.9717

     occupation numbers 
     0.0329   0.0329   0.0329   0.0329   0.0000   0.0000   0.0000   0.0000
     0.0000   0.0000

          k = 0.7222-0.2778 0.8333 (   257 PWs)   bands (ev):

    -3.1684   0.1818   2.8000   3.9162   8.0040  10.3398  11.6450  12.9281
    16.5528  17.4203

     occupation numbers 
     0.0329   0.0329   0.0329   0.0329   0.0000   0.0000   0.0000   0.0000
     0.0000   0.0000

          k = 0.6111-0.1667 0.7222 (   257 PWs)   bands (ev):

    -2.6149  -0.5426   2.3000   4.0783   8.2324  11.1940  12.4223  12.7627
    14.3385  16.0907

     occupation numbers 
     0.0329   0.0329   0.0329   0.0329   0.0000   0.0000   0.0000   0.0000
     0.0000   0.0000

          k = 0.5000-0.0556 0.6111 (   259 PWs)   bands (ev):

    -3.2212   0.2468   2.2230   4.5016   8.7189  10.9110  12.2493  12.4960
    14.1760  14.9269

     occupation numbers 
     0.0329   0.0329   0.0329   0.0329   0.0000   0.0000   0.0000   0.0000
     0.0000   0.0000

          k = 0.3889 0.0556 0.5000 (   261 PWs)   bands (ev):

    -4.0506   1.2450   2.9784   5.0561   9.3053  10.0046  11.4204  11.7076
    13.5169  16.7759

     occupation numbers 
     0.0329   0.0329   0.0329   0.0329   0.0000   0.0000   0.0000   0.0000
     0.0000   0.0000

          k = 0.2778 0.1667 0.3889 (   263 PWs)   bands (ev):

    -4.6634   1.8704   4.5629   5.4030   8.8695   9.6509  10.4508  12.1075
    13.8843  15.5066

     occupation numbers 
     0.0329   0.0329   0.0329   0.0329   0.0000   0.0000   0.0000   0.0000
     0.0000   0.0000

          k =-0.0556 0.7222 0.0556 (   253 PWs)   bands (ev):

    -3.4735   0.7942   3.5435   3.7133   7.0483   8.0778  13.9902  14.0315
    16.9703  17.0404

     occupation numbers 
     0.0165   0.0165   0.0165   0.0165   0.0000   0.0000   0.0000   0.0000
     0.0000   0.0000

          k = 0.8333-0.1667 0.9444 (   257 PWs)   bands (ev):

    -2.6871  -0.1970   2.9479   3.4266   7.3986   8.1844  13.8648  15.0467
    17.0634  17.8437

     occupation numbers 
     0.0329   0.0329   0.0329   0.0329   0.0000   0.0000   0.0000   0.0000
     0.0000   0.0000

          k = 0.7222-0.0556 0.8333 (   257 PWs)   bands (ev):

    -1.9401  -0.9411   2.0397   3.5650   7.6391   9.9265  13.4339  14.4800
    15.0369  16.3039

     occupation numbers 
     0.0329   0.0329   0.0329   0.0329   0.0000   0.0000   0.0000   0.0000
     0.0000   0.0000

          k = 0.6111 0.0556 0.7222 (   260 PWs)   bands (ev):

    -2.4182  -0.5073   1.8381   3.9789   8.1153  11.8719  12.4881  13.2672
    13.7407  15.1477

     occupation numbers 
     0.0329   0.0329   0.0329   0.0329   0.0000   0.0000   0.0000   0.0000
     0.0000   0.0000

          k = 0.5000 0.1667 0.6111 (   257 PWs)   bands (ev):

    -3.1995  -0.1425   2.8068   4.5678   8.7893  10.2172  11.6301  13.2392
    14.9196  15.0592

     occupation numbers 
     0.0329   0.0329   0.0329   0.0329   0.0000   0.0000   0.0000   0.0000
     0.0000   0.0000

          k = 0.3889 0.2778 0.5000 (   260 PWs)   bands (ev):

    -3.8201   0.1467   4.3502   5.0254   8.6526   9.5856  10.2890  13.4237
    14.9454  15.7849

     occupation numbers 
     0.0329   0.0329   0.0329   0.0329   0.0000   0.0000   0.0000   0.0000
     0.0000   0.0000

          k =-0.0556-1.0556 0.0556 (   254 PWs)   bands (ev):

    -1.9511  -1.0830   3.2117   3.4155   6.9628   7.2734  16.0149  16.0818
    17.4252  17.5002

     occupation numbers 
     0.0165   0.0165   0.0165   0.0165   0.0000   0.0000   0.0000   0.0000
     0.0000   0.0000

          k =-0.1667-0.9444-0.0556 (   256 PWs)   bands (ev):

    -1.9085  -1.0643   2.8226   3.3028   7.3298   7.9640  14.8512  15.7462
    16.4082  17.4065

     occupation numbers 
     0.0329   0.0329   0.0329   0.0329   0.0000   0.0000   0.0000   0.0000
     0.0000   0.0000

          k =-0.2778-0.8333-0.1667 (   257 PWs)   bands (ev):

    -2.5395  -0.3829   2.3067   3.6792   7.7620  10.0659  12.5176  13.9251
    15.6213  17.2920

     occupation numbers 
     0.0329   0.0329   0.0329   0.0329   0.0000   0.0000   0.0000   0.0000
     0.0000   0.0000

          k =-0.3889-0.7222-0.2778 (   255 PWs)   bands (ev):

    -2.9732  -0.4624   3.0022   4.2795   8.4564  10.4328  11.7724  12.6828
    15.2820  16.7835

     occupation numbers 
     0.0329   0.0329   0.0329   0.0329   0.0000   0.0000   0.0000   0.0000
     0.0000   0.0000

          k =-0.5000-0.6111-0.3889 (   256 PWs)   bands (ev):

    -3.2580  -0.7132   4.2965   4.8742   8.5666   9.5119  10.1718  14.3285
    15.5275  16.4010

     occupation numbers 
     0.0165   0.0165   0.0165   0.0165   0.0000   0.0000   0.0000   0.0000
     0.0000   0.0000

          k =-0.0556-0.8333 0.0556 (   251 PWs)   bands (ev):

    -2.7513  -0.1602   3.3231   3.5151   6.9564   7.5851  15.0460  15.0529
    17.8810  18.0775

     occupation numbers 
     0.0165   0.0165   0.0165   0.0165   0.0000   0.0000   0.0000   0.0000
     0.0000   0.0000

          k =-0.1667-0.7222-0.0556 (   256 PWs)   bands (ev):

    -3.3916   0.6757   3.1943   3.6826   7.5430   8.5987  12.9192  13.9886
    16.8216  17.9356

     occupation numbers 
     0.0329   0.0329   0.0329   0.0329   0.0000   0.0000   0.0000   0.0000
     0.0000   0.0000

          k =-0.2778-0.6111-0.1667 (   256 PWs)   bands (ev):

    -3.7448   0.7222   3.4151   4.2965   8.3358  10.7157  10.8780  11.9901
    16.1712  16.7865

     occupation numbers 
     0.0329   0.0329   0.0329   0.0329   0.0000   0.0000   0.0000   0.0000
     0.0000   0.0000

          k =-0.0556-0.6111 0.0556 (   255 PWs)   bands (ev):

    -4.1031   1.7588   3.8770   4.0048   7.2519   8.7379  12.9484  13.0367
    15.8666  16.1671

     occupation numbers 
     0.0165   0.0165   0.0165   0.0165   0.0000   0.0000   0.0000   0.0000
     0.0000   0.0000

          k =-0.1667-0.5000-0.0556 (   264 PWs)   bands (ev):

    -4.5410   2.3236   3.9790   4.6180   8.0900   9.9237  11.1719  11.9282
    14.7576  15.8991

     occupation numbers 
     0.0329   0.0329   0.0329   0.0329   0.0000   0.0000   0.0000   0.0000
     0.0000   0.0000

          k =-0.0556-0.3889 0.0556 (   266 PWs)   bands (ev):

    -5.0754   3.6242   4.8393   4.8611   7.9367  10.3529  11.0350  11.1354
    13.5975  14.9235

     occupation numbers 
     0.0165   0.0165   0.0165   0.0165   0.0000   0.0000   0.0000   0.0000
     0.0000   0.0000

          k =-0.1667 0.1667 0.1667 (   268 PWs)   bands (ev):

    -5.4071   3.9135   5.8452   5.8452   8.7210   9.5516   9.5516  11.8531
    13.5369  13.5369

     occupation numbers 
     0.0055   0.0055   0.0055   0.0055   0.0000   0.0000   0.0000   0.0000
     0.0000   0.0000

          k =-0.2778 0.2778 0.0556 (   264 PWs)   bands (ev):

    -5.0806   3.1433   4.4859   5.9069   9.2954   9.6016   9.9237  12.0950
    12.7111  14.8232

     occupation numbers 
     0.0165   0.0165   0.0165   0.0165   0.0000   0.0000   0.0000   0.0000
     0.0000   0.0000

          k =-0.3889 0.3889-0.0556 (   263 PWs)   bands (ev):

    -4.4541   1.8339   3.4354   5.4880   9.2572  10.2259  10.4666  12.2261
    12.6031  16.7266

     occupation numbers 
     0.0165   0.0165   0.0165   0.0165   0.0000   0.0000   0.0000   0.0000
     0.0000   0.0000

          k = 0.5000-0.5000 0.8333 (   258 PWs)   bands (ev):

    -3.6122   0.2424   3.1900   4.9797   8.7872  10.4659  10.5891  13.6486
    13.7750  15.7696

     occupation numbers 
     0.0165   0.0165   0.0165   0.0165   0.0000   0.0000   0.0000   0.0000
     0.0000   0.0000

          k = 0.3889-0.3889 0.7222 (   256 PWs)   bands (ev):

    -3.0393  -0.6136   3.3144   4.5983   8.4386  10.4259  10.8296  13.8345
    15.2458  15.8294

     occupation numbers 
     0.0165   0.0165   0.0165   0.0165   0.0000   0.0000   0.0000   0.0000
     0.0000   0.0000

          k = 0.2778-0.2778 0.6111 (   256 PWs)   bands (ev):

    -3.5963   0.2178   3.6997   4.4350   8.3133  10.5741  11.1821  11.8281
    16.0651  17.1863

     occupation numbers 
     0.0165   0.0165   0.0165   0.0165   0.0000   0.0000   0.0000   0.0000
     0.0000   0.0000

          k = 0.1667-0.1667 0.5000 (   259 PWs)   bands (ev):

    -4.4421   1.8557   4.2759   4.5176   8.2583  10.4289  10.8836  11.4599
    15.5537  15.5943

     occupation numbers 
     0.0165   0.0165   0.0165   0.0165   0.0000   0.0000   0.0000   0.0000
     0.0000   0.0000

          k =-0.1667 0.3889 0.1667 (   263 PWs)   bands (ev):

    -4.8665   2.5189   4.9413   5.0275   8.6387   9.8995  10.7614  11.3536
    14.3515  14.7155

     occupation numbers 
     0.0165   0.0165   0.0165   0.0165   0.0000   0.0000   0.0000   0.0000
     0.0000   0.0000

          k =-0.2778 0.5000 0.0556 (   262 PWs)   bands (ev):

    -4.3431   1.7931   3.4771   4.8996   8.9458  10.1712  10.6819  11.7288
    14.2030  16.9524

     occupation numbers 
     0.0329   0.0329   0.0329   0.0329   0.0000   0.0000   0.0000   0.0000
     0.0000   0.0000

          k = 0.6111-0.3889 0.9444 (   257 PWs)   bands (ev):

    -3.5591   0.6853   2.6129   4.3912   9.6714   9.7099  11.0776  12.6438
    14.7367  16.1563

     occupation numbers 
     0.0329   0.0329   0.0329   0.0329   0.0000   0.0000   0.0000   0.0000
     0.0000   0.0000

          k = 0.5000-0.2778 0.8333 (   257 PWs)   bands (ev):

    -2.7727  -0.4179   2.4701   3.9822   9.1558   9.9670  12.7730  12.9000
    13.8393  16.4648

     occupation numbers 
     0.0329   0.0329   0.0329   0.0329   0.0000   0.0000   0.0000   0.0000
     0.0000   0.0000

          k = 0.3889-0.1667 0.7222 (   256 PWs)   bands (ev):

    -2.9764  -0.1516   2.6512   3.9098   8.8583  10.3032  11.5970  12.8911
    15.1819  16.9260

     occupation numbers 
     0.0329   0.0329   0.0329   0.0329   0.0000   0.0000   0.0000   0.0000
     0.0000   0.0000

          k = 0.2778-0.0556 0.6111 (   260 PWs)   bands (ev):

    -3.8271   1.1302   3.0784   4.2224   8.6395   9.9961  10.8389  12.8141
    15.3093  17.2359

     occupation numbers 
     0.0329   0.0329   0.0329   0.0329   0.0000   0.0000   0.0000   0.0000
     0.0000   0.0000

          k =-0.1667 0.6111 0.1667 (   263 PWs)   bands (ev):

    -3.9235   1.1887   3.5549   4.1551   7.8727   9.8199  11.7991  12.2068
    16.5997  16.8080

     occupation numbers 
     0.0165   0.0165   0.0165   0.0165   0.0000   0.0000   0.0000   0.0000
     0.0000   0.0000

          k = 0.7222-0.2778 1.0556 (   255 PWs)   bands (ev):

    -3.2269   0.4439   2.7678   3.6377   8.3957   9.4766  11.6109  13.9350
    16.4844  16.5468

     occupation numbers 
     0.0329   0.0329   0.0329   0.0329   0.0000   0.0000   0.0000   0.0000
     0.0000   0.0000

          k = 0.6111-0.1667 0.9444 (   255 PWs)   bands (ev):

    -2.3779  -0.4299   2.2189   3.1101   9.3000  10.2083  11.1507  14.0201
    15.0599  17.2745

     occupation numbers 
     0.0329   0.0329   0.0329   0.0329   0.0000   0.0000   0.0000   0.0000
     0.0000   0.0000

          k = 0.5000-0.0556 0.8333 (   261 PWs)   bands (ev):

    -2.1941  -0.6207   1.9875   3.1675   9.6408  10.5645  11.6304  12.6469
    15.0281  16.9181

     occupation numbers 
     0.0329   0.0329   0.0329   0.0329   0.0000   0.0000   0.0000   0.0000
     0.0000   0.0000

          k = 0.3889 0.0556 0.7222 (   257 PWs)   bands (ev):

    -2.9966   0.1366   2.3555   3.6934   9.4692  10.1681  10.7371  13.8474
    15.1210  16.0331

     occupation numbers 
     0.0329   0.0329   0.0329   0.0329   0.0000   0.0000   0.0000   0.0000
     0.0000   0.0000

          k =-0.1667-1.1667 0.1667 (   251 PWs)   bands (ev):

    -2.6279  -0.2608   2.5615   3.6876   7.3222   9.0142  13.8857  13.8932
    17.0511  17.2272

     occupation numbers 
     0.0165   0.0165   0.0165   0.0165   0.0000   0.0000   0.0000   0.0000
     0.0000   0.0000

          k =-0.2778-1.0556 0.0556 (   255 PWs)   bands (ev):

    -1.8335  -1.0331   2.4443   3.0143   8.1430   8.9488  13.4034  14.4185
    16.2264  17.4588

     occupation numbers 
     0.0329   0.0329   0.0329   0.0329   0.0000   0.0000   0.0000   0.0000
     0.0000   0.0000

          k =-0.3889-0.9444-0.0556 (   258 PWs)   bands (ev):

    -1.7579  -1.0175   2.1900   2.7538   9.2151  10.0907  11.9849  12.9605
    16.2142  17.5225

     occupation numbers 
     0.0329   0.0329   0.0329   0.0329   0.0000   0.0000   0.0000   0.0000
     0.0000   0.0000

          k =-0.5000-0.8333-0.1667 (   258 PWs)   bands (ev):

    -2.4069  -0.5725   2.1817   3.4590   9.6438   9.9096  12.4659  12.9120
    13.9882  17.6056

     occupation numbers 
     0.0165   0.0165   0.0165   0.0165   0.0000   0.0000   0.0000   0.0000
     0.0000   0.0000

          k =-0.1667-0.9444 0.1667 (   258 PWs)   bands (ev):

    -1.9091  -1.0269   2.3619   3.5909   7.1936   8.8521  14.7436  14.9680
    16.0493  16.2010

     occupation numbers 
     0.0165   0.0165   0.0165   0.0165   0.0000   0.0000   0.0000   0.0000
     0.0000   0.0000

          k =-0.2778-0.8333 0.0556 (   252 PWs)   bands (ev):

    -2.5527  -0.2824   2.5546   3.2238   8.2296   9.1289  12.4685  15.0264
    15.5606  17.5960

     occupation numbers 
     0.0329   0.0329   0.0329   0.0329   0.0000   0.0000   0.0000   0.0000
     0.0000   0.0000

          k =-0.1667-0.7222 0.1667 (   255 PWs)   bands (ev):

    -3.3137   0.4900   2.9648   3.8759   7.5530   9.3332  12.8326  13.0154
    17.6417  17.7131

     occupation numbers 
     0.0165   0.0165   0.0165   0.0165   0.0000   0.0000   0.0000   0.0000
     0.0000   0.0000

          k =-0.2778 0.2778 0.2778 (   262 PWs)   bands (ev):

    -4.7739   1.8438   5.4375   5.4375   8.3043   9.8816   9.8816  13.6852
    13.8487  13.8487

     occupation numbers 
     0.0055   0.0055   0.0055   0.0055   0.0000   0.0000   0.0000   0.0000
     0.0000   0.0000

          k =-0.3889 0.3889 0.1667 (   261 PWs)   bands (ev):

    -4.3603   1.2627   4.0883   5.4397   8.9300   9.9947  10.1050  13.0402
    13.2034  15.8331

     occupation numbers 
     0.0165   0.0165   0.0165   0.0165   0.0000   0.0000   0.0000   0.0000
     0.0000   0.0000

          k = 0.5000-0.5000 1.0556 (   260 PWs)   bands (ev):

    -3.6729   0.7253   2.5487   4.9504   8.7772  11.0663  11.2774  12.7309
    12.9974  16.0117

     occupation numbers 
     0.0165   0.0165   0.0165   0.0165   0.0000   0.0000   0.0000   0.0000
     0.0000   0.0000

          k = 0.3889-0.3889 0.9444 (   256 PWs)   bands (ev):

    -2.8288  -0.1529   1.9530   4.4014   8.1518  12.1222  12.2551  13.4661
    13.7988  13.8456

     occupation numbers 
     0.0165   0.0165   0.0165   0.0165   0.0000   0.0000   0.0000   0.0000
     0.0000   0.0000

          k = 0.2778-0.2778 0.8333 (   257 PWs)   bands (ev):

    -2.5449  -0.5072   2.2232   4.0153   7.7251  11.1518  12.6072  12.6239
    15.7441  15.8706

     occupation numbers 
     0.0165   0.0165   0.0165   0.0165   0.0000   0.0000   0.0000   0.0000
     0.0000   0.0000

          k =-0.2778 0.5000 0.2778 (   265 PWs)   bands (ev):

    -4.0766   0.6785   4.5241   4.7405   8.5967   9.8092  10.6232  12.3283
    15.4094  15.9510

     occupation numbers 
     0.0165   0.0165   0.0165   0.0165   0.0000   0.0000   0.0000   0.0000
     0.0000   0.0000

          k = 0.6111-0.3889 1.1667 (   259 PWs)   bands (ev):

    -3.5000   0.2534   3.1315   4.4613   9.1443   9.7196  11.7875  11.9928
    15.5774  16.0186

     occupation numbers 
     0.0329   0.0329   0.0329   0.0329   0.0000   0.0000   0.0000   0.0000
     0.0000   0.0000

          k = 0.5000-0.2778 1.0556 (   256 PWs)   bands (ev):

    -2.7140  -0.1947   2.0284   3.8407   9.0587  10.7059  11.9098  13.5825
    13.9018  15.5651

     occupation numbers 
     0.0329   0.0329   0.0329   0.0329   0.0000   0.0000   0.0000   0.0000
     0.0000   0.0000

          k = 0.3889-0.1667 0.9444 (   262 PWs)   bands (ev):

    -2.0359  -0.8055   1.9144   3.3583   8.5245  11.0573  12.0876  13.0785
    14.9990  16.5784

     occupation numbers 
     0.0329   0.0329   0.0329   0.0329   0.0000   0.0000   0.0000   0.0000
     0.0000   0.0000

          k =-0.2778-1.2778 0.2778 (   255 PWs)   bands (ev):

    -3.0718  -0.1722   2.8911   4.1876   7.9777  11.2925  11.7010  11.8469
    16.3557  17.0313

     occupation numbers 
     0.0165   0.0165   0.0165   0.0165   0.0000   0.0000   0.0000   0.0000
     0.0000   0.0000

          k =-0.3889-1.1667 0.1667 (   256 PWs)   bands (ev):

    -2.4463  -0.5130   2.2021   3.5366   8.6383  10.9188  11.4999  13.9316
    14.1673  17.4870

     occupation numbers 
     0.0329   0.0329   0.0329   0.0329   0.0000   0.0000   0.0000   0.0000
     0.0000   0.0000

          k =-0.5000-1.0556 0.0556 (   258 PWs)   bands (ev):

    -1.7267  -1.0089   2.1030   2.6512  10.2358  10.5927  11.3922  11.8137
    16.2141  17.5507

     occupation numbers 
     0.0165   0.0165   0.0165   0.0165   0.0000   0.0000   0.0000   0.0000
     0.0000   0.0000

          k =-0.2778-1.0556 0.2778 (   259 PWs)   bands (ev):

    -2.1464  -0.7616   1.8327   3.9292   7.5943  11.0354  13.3718  13.6618
    14.7559  14.8925

     occupation numbers 
     0.0165   0.0165   0.0165   0.0165   0.0000   0.0000   0.0000   0.0000
     0.0000   0.0000

          k =-0.3889 0.3889 0.3889 (   257 PWs)   bands (ev):

    -3.9285   0.0926   5.1739   5.1739   8.0226   9.7731   9.7731  14.0584
    15.2916  15.2916

     occupation numbers 
     0.0055   0.0055   0.0055   0.0055   0.0000   0.0000   0.0000   0.0000
     0.0000   0.0000

          k = 0.5000-0.5000 1.2778 (   256 PWs)   bands (ev):

    -3.5139  -0.2691   4.0026   5.0254   8.6559   9.8418  10.1117  14.3170
    14.8448  15.5990

     occupation numbers 
     0.0165   0.0165   0.0165   0.0165   0.0000   0.0000   0.0000   0.0000
     0.0000   0.0000

          k = 0.3889-0.3889 1.1667 (   257 PWs)   bands (ev):

    -2.8839  -0.4208   2.5137   4.4701   8.2550  11.3459  11.4771  13.6794
    14.6032  14.6859

     occupation numbers 
     0.0165   0.0165   0.0165   0.0165   0.0000   0.0000   0.0000   0.0000
     0.0000   0.0000

          k =-0.3889-1.3889 0.3889 (   259 PWs)   bands (ev):

    -3.3035  -0.5830   4.1621   4.7753   8.5386   9.7175  10.3052  13.9758
    15.2388  17.0296

     occupation numbers 
     0.0165   0.0165   0.0165   0.0165   0.0000   0.0000   0.0000   0.0000
     0.0000   0.0000

          k =-0.5000-1.2778 0.2778 (   254 PWs)   bands (ev):

    -2.9287  -0.5758   3.0552   4.2798   9.2723   9.3965  11.7945  13.8825
    14.0489  16.7464

     occupation numbers 
     0.0165   0.0165   0.0165   0.0165   0.0000   0.0000   0.0000   0.0000
     0.0000   0.0000

          k = 0.5000-0.5000-0.5000 (   266 PWs)   bands (ev):

    -3.3700  -0.7791   5.0818   5.0818   7.9228   9.6677   9.6677  13.9127
    17.1079  17.1079

     occupation numbers 
     0.0027   0.0027   0.0027   0.0027   0.0000   0.0000   0.0000   0.0000
     0.0000   0.0000

     highest occupied, lowest unoccupied level (ev):     6.2422    6.9564

!    total energy              =     -15.83454397 Ry
     Harris-Foulkes estimate   =     -15.83454397 Ry
     estimated scf accuracy    <          3.8E-09 Ry

     The total energy is the sum of the following terms:

     one-electron contribution =       4.84133156 Ry
     hartree contribution      =       1.06950498 Ry
     xc contribution           =      -4.81740864 Ry
     ewald contribution        =     -16.92797188 Ry

     convergence has been achieved in   5 iterations

     Forces acting on atoms (Ry/au):

     atom    1 type  1   force =     0.00000000    0.00000000   -0.00000000
     atom    2 type  1   force =     0.00000000    0.00000000    0.00000000
     The non-local contrib.  to forces
     atom    1 type  1   force =     0.00000000    0.00000000    0.00000000
     atom    2 type  1   force =     0.00000000    0.00000000    0.00000000
     The ionic contribution  to forces
     atom    1 type  1   force =    -0.00000000   -0.00000000   -0.00000000
     atom    2 type  1   force =    -0.00000000    0.00000000   -0.00000000
     The local contribution  to forces
     atom    1 type  1   force =    -0.00000000   -0.00000000   -0.00000000
     atom    2 type  1   force =    -0.00000000    0.00000000   -0.00000000
     The core correction contribution to forces
     atom    1 type  1   force =     0.00000000    0.00000000    0.00000000
     atom    2 type  1   force =     0.00000000    0.00000000    0.00000000
     The Hubbard contrib.    to forces
     atom    1 type  1   force =     0.00000000    0.00000000    0.00000000
     atom    2 type  1   force =     0.00000000    0.00000000    0.00000000
     The SCF correction term to forces
     atom    1 type  1   force =    -0.00000000    0.00000000    0.00000000
     atom    2 type  1   force =    -0.00000000    0.00000000   -0.00000000

     Total force =     0.000000     Total SCF correction =     0.000000


     entering subroutine stress ...

          total   stress  (Ry/bohr**3)                   (kbar)     P=  -15.80
  -0.00010739  -0.00000000  -0.00000000        -15.80     -0.00     -0.00
  -0.00000000  -0.00010739   0.00000000         -0.00    -15.80      0.00
  -0.00000000   0.00000000  -0.00010739         -0.00      0.00    -15.80

     kinetic stress (kbar)   2298.58      0.00     -0.00
                                0.00   2298.58      0.00
                                0.00      0.00   2298.58

     local   stress (kbar)  -1424.67     -0.00      0.00
                               -0.00  -1424.67     -0.00
                                0.00     -0.00  -1424.67

     nonloc. stress (kbar)   2872.10     -0.00     -0.00
                               -0.00   2872.10      0.00
                               -0.00      0.00   2872.10

     hartree stress (kbar)    198.67      0.00     -0.00
                                0.00    198.67      0.00
                               -0.00      0.00    198.67

     exc-cor stress (kbar)   -816.02      0.00      0.00
                                0.00   -816.02      0.00
                                0.00      0.00   -816.02

     corecor stress (kbar)      0.00      0.00      0.00
                                0.00      0.00      0.00
                                0.00      0.00      0.00

     ewald   stress (kbar)  -3144.45      0.00      0.00
                                0.00  -3144.45      0.00
                                0.00      0.00  -3144.45

     hubbard stress (kbar)      0.00      0.00      0.00
                                0.00      0.00      0.00
                                0.00      0.00      0.00

     london  stress (kbar)      0.00      0.00      0.00
                                0.00      0.00      0.00
                                0.00      0.00      0.00

     dft-nl  stress (kbar)      0.00      0.00      0.00
                                0.00      0.00      0.00
                                0.00      0.00      0.00



     Writing output data file Si_e15_k9.save

     init_run     :      0.83s CPU      0.95s WALL (       1 calls)
     electrons    :     19.63s CPU     21.45s WALL (       1 calls)
     forces       :      0.10s CPU      0.14s WALL (       1 calls)
     stress       :      0.34s CPU      0.36s WALL (       1 calls)

     Called by init_run:
     wfcinit      :      0.76s CPU      0.87s WALL (       1 calls)
     potinit      :      0.01s CPU      0.01s WALL (       1 calls)

     Called by electrons:
     c_bands      :     17.58s CPU     19.36s WALL (       6 calls)
     sum_band     :      2.01s CPU      2.05s WALL (       6 calls)
     v_of_rho     :      0.02s CPU      0.01s WALL (       6 calls)
     v_h          :      0.01s CPU      0.00s WALL (       6 calls)
     v_xc         :      0.01s CPU      0.01s WALL (       6 calls)
     mix_rho      :      0.00s CPU      0.01s WALL (       6 calls)

     Called by c_bands:
     init_us_2    :      0.20s CPU      0.26s WALL (    1275 calls)
     cegterg      :     17.34s CPU     19.06s WALL (     510 calls)

     Called by sum_band:

     Called by *egterg:
     h_psi        :     12.42s CPU     13.63s WALL (    2380 calls)
     g_psi        :      0.13s CPU      0.12s WALL (    1785 calls)
     cdiaghg      :      1.90s CPU      2.31s WALL (    2210 calls)
     cegterg:over :      1.44s CPU      1.53s WALL (    1785 calls)
     cegterg:upda :      1.03s CPU      1.13s WALL (    1785 calls)
     cegterg:last :      0.42s CPU      0.43s WALL (     609 calls)

     Called by h_psi:
     h_psi:vloc   :     10.97s CPU     12.09s WALL (    2380 calls)
     h_psi:vnl    :      1.38s CPU      1.47s WALL (    2380 calls)
     add_vuspsi   :      0.43s CPU      0.55s WALL (    2380 calls)

     General routines
     calbec       :      0.92s CPU      0.94s WALL (    2550 calls)
     fft          :      0.02s CPU      0.02s WALL (      30 calls)
     fftw         :     11.54s CPU     12.46s WALL (   36338 calls)
     davcio       :      0.10s CPU      0.16s WALL (    1870 calls)

     Parallel routines

     PWSCF        :    21.57s CPU        23.62s WALL


   This run was terminated on:  15: 2:54  27Mar2012            

=------------------------------------------------------------------------------=
   JOB DONE.
=------------------------------------------------------------------------------=
