
     Program PWSCF v.4.3.2      starts on 27Mar2012 at 15: 2:54 

     This program is part of the open-source Quantum ESPRESSO suite
     for quantum simulation of materials; please cite
         "P. Giannozzi et al., J. Phys.:Condens. Matter 21 395502 (2009);
          URL http://www.quantum-espresso.org", 
     in publications or presentations arising from this work. More details at
     http://www.quantum-espresso.org/wiki/index.php/Citing_Quantum-ESPRESSO

     Parallel version (MPI), running on     1 processors

     Current dimensions of program PWSCF are:
     Max number of different atomic species (ntypx) = 10
     Max number of k-points (npk) =  40000
     Max angular momentum in pseudopotentials (lmaxx) =  3
     Waiting for input...
     Reading input from stdin

     Subspace diagonalization in iterative solution of the eigenvalue problem:
     a serial algorithm will be used


     G-vector sticks info
     --------------------
     sticks:   dense  smooth     PW     G-vecs:    dense   smooth      PW
     Sum         211     211     85                 2085     2085     531



     bravais-lattice index     =            2
     lattice parameter (alat)  =      10.1830  a.u.
     unit-cell volume          =     263.9777 (a.u.)^3
     number of atoms/cell      =            2
     number of atomic types    =            1
     number of electrons       =         8.00
     number of Kohn-Sham states=           10
     kinetic-energy cutoff     =      15.0000  Ry
     charge density cutoff     =      60.0000  Ry
     convergence threshold     =      1.0E-08
     mixing beta               =       0.7000
     number of iterations used =            8  plain     mixing
     Exchange-correlation      =  SLA  PZ   NOGX NOGC ( 1 1 0 0 0)
     EXX-fraction              =        0.00

     celldm(1)=  10.183000  celldm(2)=   0.000000  celldm(3)=   0.000000
     celldm(4)=   0.000000  celldm(5)=   0.000000  celldm(6)=   0.000000

     crystal axes: (cart. coord. in units of alat)
               a(1) = (  -0.500000   0.000000   0.500000 )  
               a(2) = (   0.000000   0.500000   0.500000 )  
               a(3) = (  -0.500000   0.500000   0.000000 )  

     reciprocal axes: (cart. coord. in units 2 pi/alat)
               b(1) = ( -1.000000 -1.000000  1.000000 )  
               b(2) = (  1.000000  1.000000  1.000000 )  
               b(3) = ( -1.000000  1.000000 -1.000000 )  


     PseudoPot. # 1 for Si read from file:
     /home/dsangalli/Personal_files/Workshop/2012_Losanna_Cecam/trunk/GW_tutorial/Si/gs/pwscf/psps/Si.vbc.UPF
     MD5 check sum: bcd8ae23180a2f07cc8655fe7dcd9644
     Pseudo is Norm-conserving, Zval =  4.0
     Generated by new atomic code, or converted to UPF format
     Using radial grid of  431 points,  2 beta functions with: 
                l(1) =   0
                l(2) =   1

     atomic species   valence    mass     pseudopotential
        Si             4.00    28.08600     Si( 1.00)

     24 Sym.Ops. (no inversion)

                                    s                        frac. trans.

      isym =  1     identity                                     

 cryst.   s( 1) = (     1          0          0      )    f =(  0.0000000 )
                  (     0          1          0      )       (  0.0000000 )
                  (     0          0          1      )       (  0.0000000 )

 cart.    s( 1) = (  1.0000000  0.0000000  0.0000000 )    f =(  0.0000000 )
                  (  0.0000000  1.0000000  0.0000000 )       (  0.0000000 )
                  (  0.0000000  0.0000000  1.0000000 )       (  0.0000000 )


      isym =  2     180 deg rotation - cart. axis [0,0,1]        

 cryst.   s( 2) = (     0          1         -1      )    f =(  0.0000000 )
                  (     1          0         -1      )       (  0.0000000 )
                  (     0          0         -1      )       (  0.0000000 )

 cart.    s( 2) = ( -1.0000000  0.0000000  0.0000000 )    f =(  0.0000000 )
                  (  0.0000000 -1.0000000  0.0000000 )       (  0.0000000 )
                  (  0.0000000  0.0000000  1.0000000 )       (  0.0000000 )


      isym =  3     180 deg rotation - cart. axis [0,1,0]        

 cryst.   s( 3) = (    -1          0          0      )    f =(  0.0000000 )
                  (    -1          0          1      )       (  0.0000000 )
                  (    -1          1          0      )       (  0.0000000 )

 cart.    s( 3) = ( -1.0000000  0.0000000  0.0000000 )    f =(  0.0000000 )
                  (  0.0000000  1.0000000  0.0000000 )       (  0.0000000 )
                  (  0.0000000  0.0000000 -1.0000000 )       (  0.0000000 )


      isym =  4     180 deg rotation - cart. axis [1,0,0]        

 cryst.   s( 4) = (     0         -1          1      )    f =(  0.0000000 )
                  (     0         -1          0      )       (  0.0000000 )
                  (     1         -1          0      )       (  0.0000000 )

 cart.    s( 4) = (  1.0000000  0.0000000  0.0000000 )    f =(  0.0000000 )
                  (  0.0000000 -1.0000000  0.0000000 )       (  0.0000000 )
                  (  0.0000000  0.0000000 -1.0000000 )       (  0.0000000 )


      isym =  5     120 deg rotation - cart. axis [-1,-1,-1]     

 cryst.   s( 5) = (    -1          0          1      )    f =(  0.0000000 )
                  (    -1          1          0      )       (  0.0000000 )
                  (    -1          0          0      )       (  0.0000000 )

 cart.    s( 5) = (  0.0000000  1.0000000  0.0000000 )    f =(  0.0000000 )
                  (  0.0000000  0.0000000  1.0000000 )       (  0.0000000 )
                  (  1.0000000  0.0000000  0.0000000 )       (  0.0000000 )


      isym =  6     120 deg rotation - cart. axis [-1,1,1]       

 cryst.   s( 6) = (     0          1          0      )    f =(  0.0000000 )
                  (     0          0          1      )       (  0.0000000 )
                  (     1          0          0      )       (  0.0000000 )

 cart.    s( 6) = (  0.0000000 -1.0000000  0.0000000 )    f =(  0.0000000 )
                  (  0.0000000  0.0000000  1.0000000 )       (  0.0000000 )
                  ( -1.0000000  0.0000000  0.0000000 )       (  0.0000000 )


      isym =  7     120 deg rotation - cart. axis [1,1,-1]       

 cryst.   s( 7) = (     1          0         -1      )    f =(  0.0000000 )
                  (     0          0         -1      )       (  0.0000000 )
                  (     0          1         -1      )       (  0.0000000 )

 cart.    s( 7) = (  0.0000000  1.0000000  0.0000000 )    f =(  0.0000000 )
                  (  0.0000000  0.0000000 -1.0000000 )       (  0.0000000 )
                  ( -1.0000000  0.0000000  0.0000000 )       (  0.0000000 )


      isym =  8     120 deg rotation - cart. axis [1,-1,1]       

 cryst.   s( 8) = (     0         -1          0      )    f =(  0.0000000 )
                  (     1         -1          0      )       (  0.0000000 )
                  (     0         -1          1      )       (  0.0000000 )

 cart.    s( 8) = (  0.0000000 -1.0000000  0.0000000 )    f =(  0.0000000 )
                  (  0.0000000  0.0000000 -1.0000000 )       (  0.0000000 )
                  (  1.0000000  0.0000000  0.0000000 )       (  0.0000000 )


      isym =  9     120 deg rotation - cart. axis [1,1,1]        

 cryst.   s( 9) = (     0          0         -1      )    f =(  0.0000000 )
                  (     0          1         -1      )       (  0.0000000 )
                  (     1          0         -1      )       (  0.0000000 )

 cart.    s( 9) = (  0.0000000  0.0000000  1.0000000 )    f =(  0.0000000 )
                  (  1.0000000  0.0000000  0.0000000 )       (  0.0000000 )
                  (  0.0000000  1.0000000  0.0000000 )       (  0.0000000 )


      isym = 10     120 deg rotation - cart. axis [-1,1,-1]      

 cryst.   s(10) = (    -1          1          0      )    f =(  0.0000000 )
                  (    -1          0          0      )       (  0.0000000 )
                  (    -1          0          1      )       (  0.0000000 )

 cart.    s(10) = (  0.0000000  0.0000000  1.0000000 )    f =(  0.0000000 )
                  ( -1.0000000  0.0000000  0.0000000 )       (  0.0000000 )
                  (  0.0000000 -1.0000000  0.0000000 )       (  0.0000000 )


      isym = 11     120 deg rotation - cart. axis [1,-1,-1]      

 cryst.   s(11) = (     0          0          1      )    f =(  0.0000000 )
                  (     1          0          0      )       (  0.0000000 )
                  (     0          1          0      )       (  0.0000000 )

 cart.    s(11) = (  0.0000000  0.0000000 -1.0000000 )    f =(  0.0000000 )
                  ( -1.0000000  0.0000000  0.0000000 )       (  0.0000000 )
                  (  0.0000000  1.0000000  0.0000000 )       (  0.0000000 )


      isym = 12     120 deg rotation - cart. axis [-1,-1,1]      

 cryst.   s(12) = (     1         -1          0      )    f =(  0.0000000 )
                  (     0         -1          1      )       (  0.0000000 )
                  (     0         -1          0      )       (  0.0000000 )

 cart.    s(12) = (  0.0000000  0.0000000 -1.0000000 )    f =(  0.0000000 )
                  (  1.0000000  0.0000000  0.0000000 )       (  0.0000000 )
                  (  0.0000000 -1.0000000  0.0000000 )       (  0.0000000 )


      isym = 13     inv. 180 deg rotation - cart. axis [1,1,0]   

 cryst.   s(13) = (     0          1          0      )    f =(  0.0000000 )
                  (     1          0          0      )       (  0.0000000 )
                  (     0          0          1      )       (  0.0000000 )

 cart.    s(13) = (  0.0000000 -1.0000000  0.0000000 )    f =(  0.0000000 )
                  ( -1.0000000  0.0000000  0.0000000 )       (  0.0000000 )
                  (  0.0000000  0.0000000  1.0000000 )       (  0.0000000 )


      isym = 14     inv. 180 deg rotation - cart. axis [1,-1,0]  

 cryst.   s(14) = (     1          0         -1      )    f =(  0.0000000 )
                  (     0          1         -1      )       (  0.0000000 )
                  (     0          0         -1      )       (  0.0000000 )

 cart.    s(14) = (  0.0000000  1.0000000  0.0000000 )    f =(  0.0000000 )
                  (  1.0000000  0.0000000  0.0000000 )       (  0.0000000 )
                  (  0.0000000  0.0000000  1.0000000 )       (  0.0000000 )


      isym = 15     inv.  90 deg rotation - cart. axis [0,0,-1]  

 cryst.   s(15) = (     0         -1          0      )    f =(  0.0000000 )
                  (     0         -1          1      )       (  0.0000000 )
                  (     1         -1          0      )       (  0.0000000 )

 cart.    s(15) = (  0.0000000 -1.0000000  0.0000000 )    f =(  0.0000000 )
                  (  1.0000000  0.0000000  0.0000000 )       (  0.0000000 )
                  (  0.0000000  0.0000000 -1.0000000 )       (  0.0000000 )


      isym = 16     inv.  90 deg rotation - cart. axis [0,0,1]   

 cryst.   s(16) = (    -1          0          1      )    f =(  0.0000000 )
                  (    -1          0          0      )       (  0.0000000 )
                  (    -1          1          0      )       (  0.0000000 )

 cart.    s(16) = (  0.0000000  1.0000000  0.0000000 )    f =(  0.0000000 )
                  ( -1.0000000  0.0000000  0.0000000 )       (  0.0000000 )
                  (  0.0000000  0.0000000 -1.0000000 )       (  0.0000000 )


      isym = 17     inv. 180 deg rotation - cart. axis [1,0,1]   

 cryst.   s(17) = (     1          0          0      )    f =(  0.0000000 )
                  (     0          0          1      )       (  0.0000000 )
                  (     0          1          0      )       (  0.0000000 )

 cart.    s(17) = (  0.0000000  0.0000000 -1.0000000 )    f =(  0.0000000 )
                  (  0.0000000  1.0000000  0.0000000 )       (  0.0000000 )
                  ( -1.0000000  0.0000000  0.0000000 )       (  0.0000000 )


      isym = 18     inv. 180 deg rotation - cart. axis [-1,0,1]  

 cryst.   s(18) = (    -1          0          0      )    f =(  0.0000000 )
                  (    -1          1          0      )       (  0.0000000 )
                  (    -1          0          1      )       (  0.0000000 )

 cart.    s(18) = (  0.0000000  0.0000000  1.0000000 )    f =(  0.0000000 )
                  (  0.0000000  1.0000000  0.0000000 )       (  0.0000000 )
                  (  1.0000000  0.0000000  0.0000000 )       (  0.0000000 )


      isym = 19     inv.  90 deg rotation - cart. axis [0,1,0]   

 cryst.   s(19) = (     0         -1          1      )    f =(  0.0000000 )
                  (     1         -1          0      )       (  0.0000000 )
                  (     0         -1          0      )       (  0.0000000 )

 cart.    s(19) = (  0.0000000  0.0000000 -1.0000000 )    f =(  0.0000000 )
                  (  0.0000000 -1.0000000  0.0000000 )       (  0.0000000 )
                  (  1.0000000  0.0000000  0.0000000 )       (  0.0000000 )


      isym = 20     inv.  90 deg rotation - cart. axis [0,-1,0]  

 cryst.   s(20) = (     0          1         -1      )    f =(  0.0000000 )
                  (     0          0         -1      )       (  0.0000000 )
                  (     1          0         -1      )       (  0.0000000 )

 cart.    s(20) = (  0.0000000  0.0000000  1.0000000 )    f =(  0.0000000 )
                  (  0.0000000 -1.0000000  0.0000000 )       (  0.0000000 )
                  ( -1.0000000  0.0000000  0.0000000 )       (  0.0000000 )


      isym = 21     inv. 180 deg rotation - cart. axis [0,1,1]   

 cryst.   s(21) = (     1         -1          0      )    f =(  0.0000000 )
                  (     0         -1          0      )       (  0.0000000 )
                  (     0         -1          1      )       (  0.0000000 )

 cart.    s(21) = (  1.0000000  0.0000000  0.0000000 )    f =(  0.0000000 )
                  (  0.0000000  0.0000000 -1.0000000 )       (  0.0000000 )
                  (  0.0000000 -1.0000000  0.0000000 )       (  0.0000000 )


      isym = 22     inv. 180 deg rotation - cart. axis [0,1,-1]  

 cryst.   s(22) = (     0          0          1      )    f =(  0.0000000 )
                  (     0          1          0      )       (  0.0000000 )
                  (     1          0          0      )       (  0.0000000 )

 cart.    s(22) = (  1.0000000  0.0000000  0.0000000 )    f =(  0.0000000 )
                  (  0.0000000  0.0000000  1.0000000 )       (  0.0000000 )
                  (  0.0000000  1.0000000  0.0000000 )       (  0.0000000 )


      isym = 23     inv.  90 deg rotation - cart. axis [-1,0,0]  

 cryst.   s(23) = (     0          0         -1      )    f =(  0.0000000 )
                  (     1          0         -1      )       (  0.0000000 )
                  (     0          1         -1      )       (  0.0000000 )

 cart.    s(23) = ( -1.0000000  0.0000000  0.0000000 )    f =(  0.0000000 )
                  (  0.0000000  0.0000000 -1.0000000 )       (  0.0000000 )
                  (  0.0000000  1.0000000  0.0000000 )       (  0.0000000 )


      isym = 24     inv.  90 deg rotation - cart. axis [1,0,0]   

 cryst.   s(24) = (    -1          1          0      )    f =(  0.0000000 )
                  (    -1          0          1      )       (  0.0000000 )
                  (    -1          0          0      )       (  0.0000000 )

 cart.    s(24) = ( -1.0000000  0.0000000  0.0000000 )    f =(  0.0000000 )
                  (  0.0000000  0.0000000  1.0000000 )       (  0.0000000 )
                  (  0.0000000 -1.0000000  0.0000000 )       (  0.0000000 )


     point group T_d (-43m) 
     there are  5 classes
     the character table:

       E     8C3   3C2   6S4   6s_d 
A_1    1.00  1.00  1.00  1.00  1.00
A_2    1.00  1.00  1.00 -1.00 -1.00
E      2.00 -1.00  2.00  0.00  0.00
T_1    3.00  0.00 -1.00  1.00 -1.00
T_2    3.00  0.00 -1.00 -1.00  1.00

     the symmetry operations in each class:
     E        1
     3C2      2    3    4
     8C3      5    7    8    6   12    9   10   11
     6s_d    13   14   17   18   21   22
     6S4     15   16   20   19   23   24

   Cartesian axes

     site n.     atom                  positions (alat units)
         1           Si  tau(   1) = (   0.0000000   0.0000000   0.0000000  )
         2           Si  tau(   2) = (   0.2500000   0.2500000   0.2500000  )

   Crystallographic axes

     site n.     atom                  positions (cryst. coord.)
         1           Si  tau(   1) = (  0.0000000  0.0000000  0.0000000  )
         2           Si  tau(   2) = ( -0.2500000  0.7500000 -0.2500000  )

     number of k points=   110
                       cart. coord. in units 2pi/alat
        k(    1) = (  -0.0500000   0.0500000   0.0500000), wk =   0.0040000
        k(    2) = (  -0.1500000   0.1500000  -0.0500000), wk =   0.0120000
        k(    3) = (  -0.2500000   0.2500000  -0.1500000), wk =   0.0120000
        k(    4) = (  -0.3500000   0.3500000  -0.2500000), wk =   0.0120000
        k(    5) = (  -0.4500000   0.4500000  -0.3500000), wk =   0.0120000
        k(    6) = (   0.4500000  -0.4500000   0.5500000), wk =   0.0120000
        k(    7) = (   0.3500000  -0.3500000   0.4500000), wk =   0.0120000
        k(    8) = (   0.2500000  -0.2500000   0.3500000), wk =   0.0120000
        k(    9) = (   0.1500000  -0.1500000   0.2500000), wk =   0.0120000
        k(   10) = (   0.0500000  -0.0500000   0.1500000), wk =   0.0120000
        k(   11) = (  -0.0500000   0.2500000   0.0500000), wk =   0.0120000
        k(   12) = (  -0.1500000   0.3500000  -0.0500000), wk =   0.0240000
        k(   13) = (  -0.2500000   0.4500000  -0.1500000), wk =   0.0240000
        k(   14) = (  -0.3500000   0.5500000  -0.2500000), wk =   0.0240000
        k(   15) = (   0.5500000  -0.3500000   0.6500000), wk =   0.0240000
        k(   16) = (   0.4500000  -0.2500000   0.5500000), wk =   0.0240000
        k(   17) = (   0.3500000  -0.1500000   0.4500000), wk =   0.0240000
        k(   18) = (   0.2500000  -0.0500000   0.3500000), wk =   0.0240000
        k(   19) = (   0.1500000   0.0500000   0.2500000), wk =   0.0240000
        k(   20) = (  -0.0500000   0.4500000   0.0500000), wk =   0.0120000
        k(   21) = (  -0.1500000   0.5500000  -0.0500000), wk =   0.0240000
        k(   22) = (  -0.2500000   0.6500000  -0.1500000), wk =   0.0240000
        k(   23) = (   0.6500000  -0.2500000   0.7500000), wk =   0.0240000
        k(   24) = (   0.5500000  -0.1500000   0.6500000), wk =   0.0240000
        k(   25) = (   0.4500000  -0.0500000   0.5500000), wk =   0.0240000
        k(   26) = (   0.3500000   0.0500000   0.4500000), wk =   0.0240000
        k(   27) = (   0.2500000   0.1500000   0.3500000), wk =   0.0240000
        k(   28) = (  -0.0500000   0.6500000   0.0500000), wk =   0.0120000
        k(   29) = (  -0.1500000   0.7500000  -0.0500000), wk =   0.0240000
        k(   30) = (   0.7500000  -0.1500000   0.8500000), wk =   0.0240000
        k(   31) = (   0.6500000  -0.0500000   0.7500000), wk =   0.0240000
        k(   32) = (   0.5500000   0.0500000   0.6500000), wk =   0.0240000
        k(   33) = (   0.4500000   0.1500000   0.5500000), wk =   0.0240000
        k(   34) = (   0.3500000   0.2500000   0.4500000), wk =   0.0240000
        k(   35) = (  -0.0500000   0.8500000   0.0500000), wk =   0.0120000
        k(   36) = (   0.8500000  -0.0500000   0.9500000), wk =   0.0240000
        k(   37) = (   0.7500000   0.0500000   0.8500000), wk =   0.0240000
        k(   38) = (   0.6500000   0.1500000   0.7500000), wk =   0.0240000
        k(   39) = (   0.5500000   0.2500000   0.6500000), wk =   0.0240000
        k(   40) = (   0.4500000   0.3500000   0.5500000), wk =   0.0240000
        k(   41) = (  -0.0500000  -0.9500000   0.0500000), wk =   0.0120000
        k(   42) = (  -0.1500000  -0.8500000  -0.0500000), wk =   0.0240000
        k(   43) = (  -0.2500000  -0.7500000  -0.1500000), wk =   0.0240000
        k(   44) = (  -0.3500000  -0.6500000  -0.2500000), wk =   0.0240000
        k(   45) = (  -0.0500000  -0.7500000   0.0500000), wk =   0.0120000
        k(   46) = (  -0.1500000  -0.6500000  -0.0500000), wk =   0.0240000
        k(   47) = (  -0.2500000  -0.5500000  -0.1500000), wk =   0.0240000
        k(   48) = (  -0.0500000  -0.5500000   0.0500000), wk =   0.0120000
        k(   49) = (  -0.1500000  -0.4500000  -0.0500000), wk =   0.0240000
        k(   50) = (  -0.0500000  -0.3500000   0.0500000), wk =   0.0120000
        k(   51) = (  -0.1500000   0.1500000   0.1500000), wk =   0.0040000
        k(   52) = (  -0.2500000   0.2500000   0.0500000), wk =   0.0120000
        k(   53) = (  -0.3500000   0.3500000  -0.0500000), wk =   0.0120000
        k(   54) = (  -0.4500000   0.4500000  -0.1500000), wk =   0.0120000
        k(   55) = (   0.4500000  -0.4500000   0.7500000), wk =   0.0120000
        k(   56) = (   0.3500000  -0.3500000   0.6500000), wk =   0.0120000
        k(   57) = (   0.2500000  -0.2500000   0.5500000), wk =   0.0120000
        k(   58) = (   0.1500000  -0.1500000   0.4500000), wk =   0.0120000
        k(   59) = (  -0.1500000   0.3500000   0.1500000), wk =   0.0120000
        k(   60) = (  -0.2500000   0.4500000   0.0500000), wk =   0.0240000
        k(   61) = (  -0.3500000   0.5500000  -0.0500000), wk =   0.0240000
        k(   62) = (   0.5500000  -0.3500000   0.8500000), wk =   0.0240000
        k(   63) = (   0.4500000  -0.2500000   0.7500000), wk =   0.0240000
        k(   64) = (   0.3500000  -0.1500000   0.6500000), wk =   0.0240000
        k(   65) = (   0.2500000  -0.0500000   0.5500000), wk =   0.0240000
        k(   66) = (  -0.1500000   0.5500000   0.1500000), wk =   0.0120000
        k(   67) = (  -0.2500000   0.6500000   0.0500000), wk =   0.0240000
        k(   68) = (   0.6500000  -0.2500000   0.9500000), wk =   0.0240000
        k(   69) = (   0.5500000  -0.1500000   0.8500000), wk =   0.0240000
        k(   70) = (   0.4500000  -0.0500000   0.7500000), wk =   0.0240000
        k(   71) = (   0.3500000   0.0500000   0.6500000), wk =   0.0240000
        k(   72) = (  -0.1500000   0.7500000   0.1500000), wk =   0.0120000
        k(   73) = (   0.7500000  -0.1500000   1.0500000), wk =   0.0240000
        k(   74) = (   0.6500000  -0.0500000   0.9500000), wk =   0.0240000
        k(   75) = (   0.5500000   0.0500000   0.8500000), wk =   0.0240000
        k(   76) = (   0.4500000   0.1500000   0.7500000), wk =   0.0240000
        k(   77) = (  -0.1500000  -1.0500000   0.1500000), wk =   0.0120000
        k(   78) = (  -0.2500000  -0.9500000   0.0500000), wk =   0.0240000
        k(   79) = (  -0.3500000  -0.8500000  -0.0500000), wk =   0.0240000
        k(   80) = (  -0.1500000  -0.8500000   0.1500000), wk =   0.0120000
        k(   81) = (  -0.2500000  -0.7500000   0.0500000), wk =   0.0240000
        k(   82) = (  -0.1500000  -0.6500000   0.1500000), wk =   0.0120000
        k(   83) = (  -0.2500000   0.2500000   0.2500000), wk =   0.0040000
        k(   84) = (  -0.3500000   0.3500000   0.1500000), wk =   0.0120000
        k(   85) = (  -0.4500000   0.4500000   0.0500000), wk =   0.0120000
        k(   86) = (   0.4500000  -0.4500000   0.9500000), wk =   0.0120000
        k(   87) = (   0.3500000  -0.3500000   0.8500000), wk =   0.0120000
        k(   88) = (   0.2500000  -0.2500000   0.7500000), wk =   0.0120000
        k(   89) = (  -0.2500000   0.4500000   0.2500000), wk =   0.0120000
        k(   90) = (  -0.3500000   0.5500000   0.1500000), wk =   0.0240000
        k(   91) = (   0.5500000  -0.3500000   1.0500000), wk =   0.0240000
        k(   92) = (   0.4500000  -0.2500000   0.9500000), wk =   0.0240000
        k(   93) = (   0.3500000  -0.1500000   0.8500000), wk =   0.0240000
        k(   94) = (  -0.2500000   0.6500000   0.2500000), wk =   0.0120000
        k(   95) = (   0.6500000  -0.2500000   1.1500000), wk =   0.0240000
        k(   96) = (   0.5500000  -0.1500000   1.0500000), wk =   0.0240000
        k(   97) = (   0.4500000  -0.0500000   0.9500000), wk =   0.0240000
        k(   98) = (  -0.2500000  -1.1500000   0.2500000), wk =   0.0120000
        k(   99) = (  -0.3500000  -1.0500000   0.1500000), wk =   0.0240000
        k(  100) = (  -0.2500000  -0.9500000   0.2500000), wk =   0.0120000
        k(  101) = (  -0.3500000   0.3500000   0.3500000), wk =   0.0040000
        k(  102) = (  -0.4500000   0.4500000   0.2500000), wk =   0.0120000
        k(  103) = (   0.4500000  -0.4500000   1.1500000), wk =   0.0120000
        k(  104) = (   0.3500000  -0.3500000   1.0500000), wk =   0.0120000
        k(  105) = (  -0.3500000   0.5500000   0.3500000), wk =   0.0120000
        k(  106) = (   0.5500000  -0.3500000   1.2500000), wk =   0.0240000
        k(  107) = (   0.4500000  -0.2500000   1.1500000), wk =   0.0240000
        k(  108) = (  -0.3500000  -1.2500000   0.3500000), wk =   0.0120000
        k(  109) = (  -0.4500000   0.4500000   0.4500000), wk =   0.0040000
        k(  110) = (   0.4500000  -0.4500000   1.3500000), wk =   0.0120000

                       cryst. coord.
        k(    1) = (   0.0500000   0.0500000   0.0500000), wk =   0.0040000
        k(    2) = (   0.0500000   0.0500000   0.1500000), wk =   0.0120000
        k(    3) = (   0.0500000   0.0500000   0.2500000), wk =   0.0120000
        k(    4) = (   0.0500000   0.0500000   0.3500000), wk =   0.0120000
        k(    5) = (   0.0500000   0.0500000   0.4500000), wk =   0.0120000
        k(    6) = (   0.0500000   0.0500000  -0.4500000), wk =   0.0120000
        k(    7) = (   0.0500000   0.0500000  -0.3500000), wk =   0.0120000
        k(    8) = (   0.0500000   0.0500000  -0.2500000), wk =   0.0120000
        k(    9) = (   0.0500000   0.0500000  -0.1500000), wk =   0.0120000
        k(   10) = (   0.0500000   0.0500000  -0.0500000), wk =   0.0120000
        k(   11) = (   0.0500000   0.1500000   0.1500000), wk =   0.0120000
        k(   12) = (   0.0500000   0.1500000   0.2500000), wk =   0.0240000
        k(   13) = (   0.0500000   0.1500000   0.3500000), wk =   0.0240000
        k(   14) = (   0.0500000   0.1500000   0.4500000), wk =   0.0240000
        k(   15) = (   0.0500000   0.1500000  -0.4500000), wk =   0.0240000
        k(   16) = (   0.0500000   0.1500000  -0.3500000), wk =   0.0240000
        k(   17) = (   0.0500000   0.1500000  -0.2500000), wk =   0.0240000
        k(   18) = (   0.0500000   0.1500000  -0.1500000), wk =   0.0240000
        k(   19) = (   0.0500000   0.1500000  -0.0500000), wk =   0.0240000
        k(   20) = (   0.0500000   0.2500000   0.2500000), wk =   0.0120000
        k(   21) = (   0.0500000   0.2500000   0.3500000), wk =   0.0240000
        k(   22) = (   0.0500000   0.2500000   0.4500000), wk =   0.0240000
        k(   23) = (   0.0500000   0.2500000  -0.4500000), wk =   0.0240000
        k(   24) = (   0.0500000   0.2500000  -0.3500000), wk =   0.0240000
        k(   25) = (   0.0500000   0.2500000  -0.2500000), wk =   0.0240000
        k(   26) = (   0.0500000   0.2500000  -0.1500000), wk =   0.0240000
        k(   27) = (   0.0500000   0.2500000  -0.0500000), wk =   0.0240000
        k(   28) = (   0.0500000   0.3500000   0.3500000), wk =   0.0120000
        k(   29) = (   0.0500000   0.3500000   0.4500000), wk =   0.0240000
        k(   30) = (   0.0500000   0.3500000  -0.4500000), wk =   0.0240000
        k(   31) = (   0.0500000   0.3500000  -0.3500000), wk =   0.0240000
        k(   32) = (   0.0500000   0.3500000  -0.2500000), wk =   0.0240000
        k(   33) = (   0.0500000   0.3500000  -0.1500000), wk =   0.0240000
        k(   34) = (   0.0500000   0.3500000  -0.0500000), wk =   0.0240000
        k(   35) = (   0.0500000   0.4500000   0.4500000), wk =   0.0120000
        k(   36) = (   0.0500000   0.4500000  -0.4500000), wk =   0.0240000
        k(   37) = (   0.0500000   0.4500000  -0.3500000), wk =   0.0240000
        k(   38) = (   0.0500000   0.4500000  -0.2500000), wk =   0.0240000
        k(   39) = (   0.0500000   0.4500000  -0.1500000), wk =   0.0240000
        k(   40) = (   0.0500000   0.4500000  -0.0500000), wk =   0.0240000
        k(   41) = (   0.0500000  -0.4500000  -0.4500000), wk =   0.0120000
        k(   42) = (   0.0500000  -0.4500000  -0.3500000), wk =   0.0240000
        k(   43) = (   0.0500000  -0.4500000  -0.2500000), wk =   0.0240000
        k(   44) = (   0.0500000  -0.4500000  -0.1500000), wk =   0.0240000
        k(   45) = (   0.0500000  -0.3500000  -0.3500000), wk =   0.0120000
        k(   46) = (   0.0500000  -0.3500000  -0.2500000), wk =   0.0240000
        k(   47) = (   0.0500000  -0.3500000  -0.1500000), wk =   0.0240000
        k(   48) = (   0.0500000  -0.2500000  -0.2500000), wk =   0.0120000
        k(   49) = (   0.0500000  -0.2500000  -0.1500000), wk =   0.0240000
        k(   50) = (   0.0500000  -0.1500000  -0.1500000), wk =   0.0120000
        k(   51) = (   0.1500000   0.1500000   0.1500000), wk =   0.0040000
        k(   52) = (   0.1500000   0.1500000   0.2500000), wk =   0.0120000
        k(   53) = (   0.1500000   0.1500000   0.3500000), wk =   0.0120000
        k(   54) = (   0.1500000   0.1500000   0.4500000), wk =   0.0120000
        k(   55) = (   0.1500000   0.1500000  -0.4500000), wk =   0.0120000
        k(   56) = (   0.1500000   0.1500000  -0.3500000), wk =   0.0120000
        k(   57) = (   0.1500000   0.1500000  -0.2500000), wk =   0.0120000
        k(   58) = (   0.1500000   0.1500000  -0.1500000), wk =   0.0120000
        k(   59) = (   0.1500000   0.2500000   0.2500000), wk =   0.0120000
        k(   60) = (   0.1500000   0.2500000   0.3500000), wk =   0.0240000
        k(   61) = (   0.1500000   0.2500000   0.4500000), wk =   0.0240000
        k(   62) = (   0.1500000   0.2500000  -0.4500000), wk =   0.0240000
        k(   63) = (   0.1500000   0.2500000  -0.3500000), wk =   0.0240000
        k(   64) = (   0.1500000   0.2500000  -0.2500000), wk =   0.0240000
        k(   65) = (   0.1500000   0.2500000  -0.1500000), wk =   0.0240000
        k(   66) = (   0.1500000   0.3500000   0.3500000), wk =   0.0120000
        k(   67) = (   0.1500000   0.3500000   0.4500000), wk =   0.0240000
        k(   68) = (   0.1500000   0.3500000  -0.4500000), wk =   0.0240000
        k(   69) = (   0.1500000   0.3500000  -0.3500000), wk =   0.0240000
        k(   70) = (   0.1500000   0.3500000  -0.2500000), wk =   0.0240000
        k(   71) = (   0.1500000   0.3500000  -0.1500000), wk =   0.0240000
        k(   72) = (   0.1500000   0.4500000   0.4500000), wk =   0.0120000
        k(   73) = (   0.1500000   0.4500000  -0.4500000), wk =   0.0240000
        k(   74) = (   0.1500000   0.4500000  -0.3500000), wk =   0.0240000
        k(   75) = (   0.1500000   0.4500000  -0.2500000), wk =   0.0240000
        k(   76) = (   0.1500000   0.4500000  -0.1500000), wk =   0.0240000
        k(   77) = (   0.1500000  -0.4500000  -0.4500000), wk =   0.0120000
        k(   78) = (   0.1500000  -0.4500000  -0.3500000), wk =   0.0240000
        k(   79) = (   0.1500000  -0.4500000  -0.2500000), wk =   0.0240000
        k(   80) = (   0.1500000  -0.3500000  -0.3500000), wk =   0.0120000
        k(   81) = (   0.1500000  -0.3500000  -0.2500000), wk =   0.0240000
        k(   82) = (   0.1500000  -0.2500000  -0.2500000), wk =   0.0120000
        k(   83) = (   0.2500000   0.2500000   0.2500000), wk =   0.0040000
        k(   84) = (   0.2500000   0.2500000   0.3500000), wk =   0.0120000
        k(   85) = (   0.2500000   0.2500000   0.4500000), wk =   0.0120000
        k(   86) = (   0.2500000   0.2500000  -0.4500000), wk =   0.0120000
        k(   87) = (   0.2500000   0.2500000  -0.3500000), wk =   0.0120000
        k(   88) = (   0.2500000   0.2500000  -0.2500000), wk =   0.0120000
        k(   89) = (   0.2500000   0.3500000   0.3500000), wk =   0.0120000
        k(   90) = (   0.2500000   0.3500000   0.4500000), wk =   0.0240000
        k(   91) = (   0.2500000   0.3500000  -0.4500000), wk =   0.0240000
        k(   92) = (   0.2500000   0.3500000  -0.3500000), wk =   0.0240000
        k(   93) = (   0.2500000   0.3500000  -0.2500000), wk =   0.0240000
        k(   94) = (   0.2500000   0.4500000   0.4500000), wk =   0.0120000
        k(   95) = (   0.2500000   0.4500000  -0.4500000), wk =   0.0240000
        k(   96) = (   0.2500000   0.4500000  -0.3500000), wk =   0.0240000
        k(   97) = (   0.2500000   0.4500000  -0.2500000), wk =   0.0240000
        k(   98) = (   0.2500000  -0.4500000  -0.4500000), wk =   0.0120000
        k(   99) = (   0.2500000  -0.4500000  -0.3500000), wk =   0.0240000
        k(  100) = (   0.2500000  -0.3500000  -0.3500000), wk =   0.0120000
        k(  101) = (   0.3500000   0.3500000   0.3500000), wk =   0.0040000
        k(  102) = (   0.3500000   0.3500000   0.4500000), wk =   0.0120000
        k(  103) = (   0.3500000   0.3500000  -0.4500000), wk =   0.0120000
        k(  104) = (   0.3500000   0.3500000  -0.3500000), wk =   0.0120000
        k(  105) = (   0.3500000   0.4500000   0.4500000), wk =   0.0120000
        k(  106) = (   0.3500000   0.4500000  -0.4500000), wk =   0.0240000
        k(  107) = (   0.3500000   0.4500000  -0.3500000), wk =   0.0240000
        k(  108) = (   0.3500000  -0.4500000  -0.4500000), wk =   0.0120000
        k(  109) = (   0.4500000   0.4500000   0.4500000), wk =   0.0040000
        k(  110) = (   0.4500000   0.4500000  -0.4500000), wk =   0.0120000

     Dense  grid:     2085 G-vectors     FFT dimensions: (  18,  18,  18)

     Largest allocated arrays     est. size (Mb)     dimensions
        Kohn-Sham Wavefunctions         0.04 Mb     (    271,   10)
        NL pseudopotentials             0.03 Mb     (    271,    8)
        Each V/rho on FFT grid          0.09 Mb     (   5832)
        Each G-vector array             0.02 Mb     (   2085)
        G-vector shells                 0.00 Mb     (     54)
     Largest temporary arrays     est. size (Mb)     dimensions
        Auxiliary wavefunctions         0.17 Mb     (    271,   40)
        Each subspace H/S matrix        0.02 Mb     (  40,  40)
        Each <psi_i|beta_j> matrix      0.00 Mb     (      8,   10)
        Arrays for rho mixing           0.71 Mb     (   5832,   8)

     Initial potential from superposition of free atoms

     starting charge    7.99901, renormalised to    8.00000
     Starting wfc are    8 atomic +    2 random wfc

     total cpu time spent up to now is        1.3 secs

     per-process dynamical memory:     3.8 Mb

     Self-consistent Calculation

     iteration #  1     ecut=    15.00 Ry     beta=0.70
     Davidson diagonalization with overlap
     ethr =  1.00E-02,  avg # of iterations =  5.3

     Threshold (ethr) on eigenvalues was too large:
     Diagonalizing with lowered threshold

     Davidson diagonalization with overlap
     ethr =  7.84E-04,  avg # of iterations =  1.7

     total cpu time spent up to now is       11.2 secs

     total energy              =     -15.83068501 Ry
     Harris-Foulkes estimate   =     -15.85210133 Ry
     estimated scf accuracy    <       0.06224954 Ry

     iteration #  2     ecut=    15.00 Ry     beta=0.70
     Davidson diagonalization with overlap
     ethr =  7.78E-04,  avg # of iterations =  1.4

     total cpu time spent up to now is       14.2 secs

     total energy              =     -15.83452408 Ry
     Harris-Foulkes estimate   =     -15.83473506 Ry
     estimated scf accuracy    <       0.00173357 Ry

     iteration #  3     ecut=    15.00 Ry     beta=0.70
     Davidson diagonalization with overlap
     ethr =  2.17E-05,  avg # of iterations =  3.6

     total cpu time spent up to now is       18.5 secs

     total energy              =     -15.83457459 Ry
     Harris-Foulkes estimate   =     -15.83458003 Ry
     estimated scf accuracy    <       0.00005737 Ry

     iteration #  4     ecut=    15.00 Ry     beta=0.70
     Davidson diagonalization with overlap
     ethr =  7.17E-07,  avg # of iterations =  2.7

     total cpu time spent up to now is       22.3 secs

     total energy              =     -15.83457664 Ry
     Harris-Foulkes estimate   =     -15.83457665 Ry
     estimated scf accuracy    <       0.00000005 Ry

     iteration #  5     ecut=    15.00 Ry     beta=0.70
     Davidson diagonalization with overlap
     ethr =  5.80E-10,  avg # of iterations =  6.0

     total cpu time spent up to now is       29.3 secs

     End of self-consistent calculation

          k =-0.0500 0.0500 0.0500 (   265 PWs)   bands (ev):

    -5.7328   5.9561   6.2550   6.2550   8.9551   8.9723   8.9723  10.0718
    14.1087  14.1087

     occupation numbers 
     0.0040   0.0040   0.0040   0.0040   0.0000   0.0000   0.0000   0.0000
     0.0000   0.0000

          k =-0.1500 0.1500-0.0500 (   269 PWs)   bands (ev):

    -5.5613   4.8145   5.6580   6.1776   9.0571   9.1380   9.4031  11.1015
    13.4113  13.9896

     occupation numbers 
     0.0120   0.0120   0.0120   0.0120   0.0000   0.0000   0.0000   0.0000
     0.0000   0.0000

          k =-0.2500 0.2500-0.1500 (   268 PWs)   bands (ev):

    -5.1285   2.9623   5.2156   5.8164   8.7357   9.6087   9.9500  12.5106
    13.0886  14.1575

     occupation numbers 
     0.0120   0.0120   0.0120   0.0120   0.0000   0.0000   0.0000   0.0000
     0.0000   0.0000

          k =-0.3500 0.3500-0.2500 (   261 PWs)   bands (ev):

    -4.4620   1.1920   4.9242   5.4438   8.4076   9.7966   9.9917  13.6210
    13.7539  15.0883

     occupation numbers 
     0.0120   0.0120   0.0120   0.0120   0.0000   0.0000   0.0000   0.0000
     0.0000   0.0000

          k =-0.4500 0.4500-0.3500 (   260 PWs)   bands (ev):

    -3.6921  -0.2341   4.7995   5.1622   8.2052   9.7602   9.7646  14.0892
    15.2504  15.8212

     occupation numbers 
     0.0120   0.0120   0.0120   0.0120   0.0000   0.0000   0.0000   0.0000
     0.0000   0.0000

          k = 0.4500-0.4500 0.5500 (   260 PWs)   bands (ev):

    -3.3555  -0.7355   4.8421   5.0132   8.1551   9.6108   9.8092  14.0513
    16.1396  17.0846

     occupation numbers 
     0.0120   0.0120   0.0120   0.0120   0.0000   0.0000   0.0000   0.0000
     0.0000   0.0000

          k = 0.3500-0.3500 0.4500 (   263 PWs)   bands (ev):

    -3.9435   0.1806   5.0184   5.0364   8.2588   9.6276  10.0014  13.8336
    14.8098  15.7483

     occupation numbers 
     0.0120   0.0120   0.0120   0.0120   0.0000   0.0000   0.0000   0.0000
     0.0000   0.0000

          k = 0.2500-0.2500 0.3500 (   263 PWs)   bands (ev):

    -4.7045   1.7553   5.1882   5.3565   8.5037   9.6572  10.1834  12.8003
    14.3733  14.4034

     occupation numbers 
     0.0120   0.0120   0.0120   0.0120   0.0000   0.0000   0.0000   0.0000
     0.0000   0.0000

          k = 0.1500-0.1500 0.2500 (   271 PWs)   bands (ev):

    -5.3023   3.5885   5.5121   5.7596   8.8134   9.3829   9.9797  11.9588
    13.2482  13.9456

     occupation numbers 
     0.0120   0.0120   0.0120   0.0120   0.0000   0.0000   0.0000   0.0000
     0.0000   0.0000

          k = 0.0500-0.0500 0.1500 (   267 PWs)   bands (ev):

    -5.6468   5.4079   5.9361   6.0794   8.7646   9.2516   9.3940  10.5644
    13.5303  14.2190

     occupation numbers 
     0.0120   0.0120   0.0120   0.0120   0.0000   0.0000   0.0000   0.0000
     0.0000   0.0000

          k =-0.0500 0.2500 0.0500 (   267 PWs)   bands (ev):

    -5.4696   4.7276   5.4817   5.6064   8.4312   9.8419  10.0529  11.0308
    12.9772  14.4395

     occupation numbers 
     0.0120   0.0120   0.0120   0.0120   0.0000   0.0000   0.0000   0.0000
     0.0000   0.0000

          k =-0.1500 0.3500-0.0500 (   267 PWs)   bands (ev):

    -5.1213   3.4711   4.7111   5.4107   8.4955  10.0611  10.6887  11.1421
    13.4798  14.6909

     occupation numbers 
     0.0240   0.0240   0.0240   0.0240   0.0000   0.0000   0.0000   0.0000
     0.0000   0.0000

          k =-0.2500 0.4500-0.1500 (   264 PWs)   bands (ev):

    -4.5274   1.7822   4.2814   5.0319   8.7370   9.9870  10.9452  11.3539
    14.5041  15.9268

     occupation numbers 
     0.0240   0.0240   0.0240   0.0240   0.0000   0.0000   0.0000   0.0000
     0.0000   0.0000

          k =-0.3500 0.5500-0.2500 (   261 PWs)   bands (ev):

    -3.7670   0.2580   4.0124   4.7384   8.7087   9.7772  10.8033  12.5484
    15.4656  16.1682

     occupation numbers 
     0.0240   0.0240   0.0240   0.0240   0.0000   0.0000   0.0000   0.0000
     0.0000   0.0000

          k = 0.5500-0.3500 0.6500 (   256 PWs)   bands (ev):

    -3.1786  -0.6414   3.8342   4.6908   8.7300   9.6071  10.6321  14.1594
    15.1037  16.4072

     occupation numbers 
     0.0240   0.0240   0.0240   0.0240   0.0000   0.0000   0.0000   0.0000
     0.0000   0.0000

          k = 0.4500-0.2500 0.5500 (   257 PWs)   bands (ev):

    -3.5171  -0.1424   3.7654   4.8894   8.8822   9.6014  10.6018  13.6297
    15.0792  15.7453

     occupation numbers 
     0.0240   0.0240   0.0240   0.0240   0.0000   0.0000   0.0000   0.0000
     0.0000   0.0000

          k = 0.3500-0.1500 0.4500 (   260 PWs)   bands (ev):

    -4.2874   1.2455   3.8732   5.2579   9.1103   9.6949  10.6558  12.2239
    13.8666  16.0912

     occupation numbers 
     0.0240   0.0240   0.0240   0.0240   0.0000   0.0000   0.0000   0.0000
     0.0000   0.0000

          k = 0.2500-0.0500 0.3500 (   266 PWs)   bands (ev):

    -4.9512   2.8814   4.2490   5.6794   9.1808   9.6377  10.4460  11.6114
    13.1143  15.2131

     occupation numbers 
     0.0240   0.0240   0.0240   0.0240   0.0000   0.0000   0.0000   0.0000
     0.0000   0.0000

          k = 0.1500 0.0500 0.2500 (   269 PWs)   bands (ev):

    -5.3855   4.1527   5.1962   5.9184   8.8463   9.4840   9.9268  11.5295
    13.0556  14.2056

     occupation numbers 
     0.0240   0.0240   0.0240   0.0240   0.0000   0.0000   0.0000   0.0000
     0.0000   0.0000

          k =-0.0500 0.4500 0.0500 (   262 PWs)   bands (ev):

    -4.8507   3.1543   4.5516   4.5803   7.6904   9.9092  11.5396  11.6568
    14.1419  15.2164

     occupation numbers 
     0.0120   0.0120   0.0120   0.0120   0.0000   0.0000   0.0000   0.0000
     0.0000   0.0000

          k =-0.1500 0.5500-0.0500 (   260 PWs)   bands (ev):

    -4.3375   2.0410   3.8351   4.3318   7.8302   9.4818  11.7006  12.4225
    15.2378  16.2292

     occupation numbers 
     0.0240   0.0240   0.0240   0.0240   0.0000   0.0000   0.0000   0.0000
     0.0000   0.0000

          k =-0.2500 0.6500-0.1500 (   254 PWs)   bands (ev):

    -3.6154   0.7088   3.2116   4.0953   8.0814  10.2047  11.3986  12.4870
    16.5964  17.1156

     occupation numbers 
     0.0240   0.0240   0.0240   0.0240   0.0000   0.0000   0.0000   0.0000
     0.0000   0.0000

          k = 0.6500-0.2500 0.7500 (   257 PWs)   bands (ev):

    -2.8907  -0.3684   2.7208   4.1163   8.2005  10.9924  11.9064  12.2948
    15.5126  16.9601

     occupation numbers 
     0.0240   0.0240   0.0240   0.0240   0.0000   0.0000   0.0000   0.0000
     0.0000   0.0000

          k = 0.5500-0.1500 0.6500 (   257 PWs)   bands (ev):

    -2.9161  -0.3271   2.4580   4.3757   8.4986  10.7705  12.0834  13.5266
    14.0088  15.2092

     occupation numbers 
     0.0240   0.0240   0.0240   0.0240   0.0000   0.0000   0.0000   0.0000
     0.0000   0.0000

          k = 0.4500-0.0500 0.5500 (   259 PWs)   bands (ev):

    -3.6518   0.7352   2.5427   4.8111   8.9824  10.5235  11.8216  12.0570
    13.6834  16.0459

     occupation numbers 
     0.0240   0.0240   0.0240   0.0240   0.0000   0.0000   0.0000   0.0000
     0.0000   0.0000

          k = 0.3500 0.0500 0.4500 (   263 PWs)   bands (ev):

    -4.3623   1.7269   3.3259   5.2953   9.4229   9.8001  11.0676  11.6079
    13.2476  16.8784

     occupation numbers 
     0.0240   0.0240   0.0240   0.0240   0.0000   0.0000   0.0000   0.0000
     0.0000   0.0000

          k = 0.2500 0.1500 0.3500 (   265 PWs)   bands (ev):

    -4.8672   2.3551   4.7656   5.5424   8.8718   9.6004  10.3552  12.0706
    13.5973  14.9383

     occupation numbers 
     0.0240   0.0240   0.0240   0.0240   0.0000   0.0000   0.0000   0.0000
     0.0000   0.0000

          k =-0.0500 0.6500 0.0500 (   257 PWs)   bands (ev):

    -3.8987   1.4301   3.7690   3.8875   7.1402   8.4641  13.3492  13.4082
    16.2427  16.4138

     occupation numbers 
     0.0120   0.0120   0.0120   0.0120   0.0000   0.0000   0.0000   0.0000
     0.0000   0.0000

          k =-0.1500 0.7500-0.0500 (   257 PWs)   bands (ev):

    -3.2435   0.4828   3.1965   3.6087   7.4033   8.3463  13.3435  14.2933
    17.0809  17.9703

     occupation numbers 
     0.0240   0.0240   0.0240   0.0240   0.0000   0.0000   0.0000   0.0000
     0.0000   0.0000

          k = 0.7500-0.1500 0.8500 (   257 PWs)   bands (ev):

    -2.4694  -0.4305   2.3409   3.6185   7.6109   9.6076  12.9901  14.2588
    15.8271  17.3145

     occupation numbers 
     0.0240   0.0240   0.0240   0.0240   0.0000   0.0000   0.0000   0.0000
     0.0000   0.0000

          k = 0.6500-0.0500 0.7500 (   259 PWs)   bands (ev):

    -2.2209  -0.6785   1.8132   3.8698   7.9050  11.4852  12.6534  13.6455
    14.0797  15.3486

     occupation numbers 
     0.0240   0.0240   0.0240   0.0240   0.0000   0.0000   0.0000   0.0000
     0.0000   0.0000

          k = 0.5500 0.0500 0.6500 (   259 PWs)   bands (ev):

    -2.8874  -0.0751   1.9942   4.3118   8.4180  11.4362  12.6613  12.8548
    13.9614  14.4222

     occupation numbers 
     0.0240   0.0240   0.0240   0.0240   0.0000   0.0000   0.0000   0.0000
     0.0000   0.0000

          k = 0.4500 0.1500 0.5500 (   259 PWs)   bands (ev):

    -3.6009   0.3255   3.0709   4.8398   8.9917  10.0015  11.2421  12.7555
    14.4058  15.8680

     occupation numbers 
     0.0240   0.0240   0.0240   0.0240   0.0000   0.0000   0.0000   0.0000
     0.0000   0.0000

          k = 0.3500 0.2500 0.4500 (   264 PWs)   bands (ev):

    -4.1470   0.6870   4.5200   5.1731   8.6393   9.6345  10.2711  13.0477
    14.6334  15.4697

     occupation numbers 
     0.0240   0.0240   0.0240   0.0240   0.0000   0.0000   0.0000   0.0000
     0.0000   0.0000

          k =-0.0500 0.8500 0.0500 (   251 PWs)   bands (ev):

    -2.6397  -0.2998   3.3299   3.4895   6.9322   7.4930  15.2399  15.2521
    17.9857  18.1405

     occupation numbers 
     0.0120   0.0120   0.0120   0.0120   0.0000   0.0000   0.0000   0.0000
     0.0000   0.0000

          k = 0.8500-0.0500 0.9500 (   255 PWs)   bands (ev):

    -1.8777  -1.1105   2.9055   3.3149   7.2584   7.7956  15.1089  15.8717
    16.5509  17.3968

     occupation numbers 
     0.0240   0.0240   0.0240   0.0240   0.0000   0.0000   0.0000   0.0000
     0.0000   0.0000

          k = 0.7500 0.0500 0.8500 (   256 PWs)   bands (ev):

    -1.8829  -1.0115   2.1509   3.5286   7.5124   9.4867  13.8318  14.7624
    15.3039  16.4168

     occupation numbers 
     0.0240   0.0240   0.0240   0.0240   0.0000   0.0000   0.0000   0.0000
     0.0000   0.0000

          k = 0.6500 0.1500 0.7500 (   256 PWs)   bands (ev):

    -2.4839  -0.5643   2.1534   3.9511   8.0057  11.4716  11.9982  13.1425
    14.6350  16.2052

     occupation numbers 
     0.0240   0.0240   0.0240   0.0240   0.0000   0.0000   0.0000   0.0000
     0.0000   0.0000

          k = 0.5500 0.2500 0.6500 (   255 PWs)   bands (ev):

    -3.0019  -0.5668   3.1298   4.5032   8.6416  10.1052  11.3181  14.0481
    14.4712  15.9866

     occupation numbers 
     0.0240   0.0240   0.0240   0.0240   0.0000   0.0000   0.0000   0.0000
     0.0000   0.0000

          k = 0.4500 0.3500 0.5500 (   258 PWs)   bands (ev):

    -3.4227  -0.5213   4.4268   4.9449   8.4983   9.5489  10.0975  14.1609
    15.2658  16.5299

     occupation numbers 
     0.0240   0.0240   0.0240   0.0240   0.0000   0.0000   0.0000   0.0000
     0.0000   0.0000

          k =-0.0500-0.9500 0.0500 (   254 PWs)   bands (ev):

    -1.9115  -1.1289   3.2413   3.4089   6.9550   7.2200  16.1021  16.1623
    17.4417  17.5089

     occupation numbers 
     0.0120   0.0120   0.0120   0.0120   0.0000   0.0000   0.0000   0.0000
     0.0000   0.0000

          k =-0.1500-0.8500-0.0500 (   255 PWs)   bands (ev):

    -2.5882  -0.3209   3.0031   3.4119   7.3019   7.9908  14.2156  15.2433
    17.1446  17.9628

     occupation numbers 
     0.0240   0.0240   0.0240   0.0240   0.0000   0.0000   0.0000   0.0000
     0.0000   0.0000

          k =-0.2500-0.7500-0.1500 (   256 PWs)   bands (ev):

    -3.0644   0.1560   2.7094   3.8038   7.8068   9.8428  12.1746  13.3547
    16.6991  17.6588

     occupation numbers 
     0.0240   0.0240   0.0240   0.0240   0.0000   0.0000   0.0000   0.0000
     0.0000   0.0000

          k =-0.3500-0.6500-0.2500 (   258 PWs)   bands (ev):

    -3.3369  -0.0940   3.3824   4.3737   8.4645  10.3335  11.4871  12.1695
    15.9307  16.9923

     occupation numbers 
     0.0240   0.0240   0.0240   0.0240   0.0000   0.0000   0.0000   0.0000
     0.0000   0.0000

          k =-0.0500-0.7500 0.0500 (   253 PWs)   bands (ev):

    -3.3048   0.5576   3.5061   3.6503   6.9888   7.9102  14.2947  14.3196
    17.1599  17.2869

     occupation numbers 
     0.0120   0.0120   0.0120   0.0120   0.0000   0.0000   0.0000   0.0000
     0.0000   0.0000

          k =-0.1500-0.6500-0.0500 (   258 PWs)   bands (ev):

    -3.8277   1.2762   3.4783   3.9140   7.5797   8.8487  12.5064  13.3452
    16.1568  17.1915

     occupation numbers 
     0.0240   0.0240   0.0240   0.0240   0.0000   0.0000   0.0000   0.0000
     0.0000   0.0000

          k =-0.2500-0.5500-0.1500 (   260 PWs)   bands (ev):

    -4.1058   1.2393   3.7610   4.5094   8.4081  10.6536  10.7003  11.6818
    15.5129  16.7347

     occupation numbers 
     0.0240   0.0240   0.0240   0.0240   0.0000   0.0000   0.0000   0.0000
     0.0000   0.0000

          k =-0.0500-0.5500 0.0500 (   260 PWs)   bands (ev):

    -4.4157   2.3020   4.1184   4.1992   7.3788   9.1444  12.4240  12.5216
    15.1771  15.7590

     occupation numbers 
     0.0120   0.0120   0.0120   0.0120   0.0000   0.0000   0.0000   0.0000
     0.0000   0.0000

          k =-0.1500-0.4500-0.0500 (   265 PWs)   bands (ev):

    -4.7713   2.7701   4.2501   4.8469   8.1428  10.1710  10.9795  11.5307
    14.3254  15.3736

     occupation numbers 
     0.0240   0.0240   0.0240   0.0240   0.0000   0.0000   0.0000   0.0000
     0.0000   0.0000

          k =-0.0500-0.3500 0.0500 (   267 PWs)   bands (ev):

    -5.2076   3.9720   5.0111   5.0599   8.0530  10.4558  10.8244  10.9018
    13.2624  14.7719

     occupation numbers 
     0.0120   0.0120   0.0120   0.0120   0.0000   0.0000   0.0000   0.0000
     0.0000   0.0000

          k =-0.1500 0.1500 0.1500 (   271 PWs)   bands (ev):

    -5.4763   4.2319   5.9123   5.9123   8.7732   9.4623   9.4623  11.5604
    13.5894  13.5894

     occupation numbers 
     0.0040   0.0040   0.0040   0.0040   0.0000   0.0000   0.0000   0.0000
     0.0000   0.0000

          k =-0.2500 0.2500 0.0500 (   267 PWs)   bands (ev):

    -5.2119   3.5168   4.7332   5.9882   9.2693   9.4756   9.7988  11.9973
    12.7974  14.4570

     occupation numbers 
     0.0120   0.0120   0.0120   0.0120   0.0000   0.0000   0.0000   0.0000
     0.0000   0.0000

          k =-0.3500 0.3500-0.0500 (   264 PWs)   bands (ev):

    -4.6963   2.2920   3.7682   5.6554   9.3395   9.9863  10.2570  12.1352
    12.5618  16.1361

     occupation numbers 
     0.0120   0.0120   0.0120   0.0120   0.0000   0.0000   0.0000   0.0000
     0.0000   0.0000

          k =-0.4500 0.4500-0.1500 (   256 PWs)   bands (ev):

    -3.9742   0.7563   3.4610   5.2019   8.9598  10.3151  10.3480  13.1878
    13.3388  16.1106

     occupation numbers 
     0.0120   0.0120   0.0120   0.0120   0.0000   0.0000   0.0000   0.0000
     0.0000   0.0000

          k = 0.4500-0.4500 0.7500 (   256 PWs)   bands (ev):

    -3.2485  -0.4307   3.4596   4.8134   8.6260  10.1863  10.5204  14.5712
    14.9588  15.0450

     occupation numbers 
     0.0120   0.0120   0.0120   0.0120   0.0000   0.0000   0.0000   0.0000
     0.0000   0.0000

          k = 0.3500-0.3500 0.6500 (   259 PWs)   bands (ev):

    -3.2453  -0.4424   3.6793   4.5753   8.4412  10.2039  10.7672  13.1825
    15.5435  17.0083

     occupation numbers 
     0.0120   0.0120   0.0120   0.0120   0.0000   0.0000   0.0000   0.0000
     0.0000   0.0000

          k = 0.2500-0.2500 0.5500 (   259 PWs)   bands (ev):

    -3.9676   0.7376   4.0768   4.5278   8.4192  10.3706  11.0925  11.5532
    15.9891  16.3703

     occupation numbers 
     0.0120   0.0120   0.0120   0.0120   0.0000   0.0000   0.0000   0.0000
     0.0000   0.0000

          k = 0.1500-0.1500 0.4500 (   265 PWs)   bands (ev):

    -4.6898   2.3294   4.5934   4.6745   8.3414  10.3774  10.8353  11.2341
    14.8753  15.1692

     occupation numbers 
     0.0120   0.0120   0.0120   0.0120   0.0000   0.0000   0.0000   0.0000
     0.0000   0.0000

          k =-0.1500 0.3500 0.1500 (   265 PWs)   bands (ev):

    -5.0370   2.9533   5.0832   5.2453   8.6775   9.7578  10.5891  11.4744
    13.8621  14.4795

     occupation numbers 
     0.0120   0.0120   0.0120   0.0120   0.0000   0.0000   0.0000   0.0000
     0.0000   0.0000

          k =-0.2500 0.4500 0.0500 (   264 PWs)   bands (ev):

    -4.6073   2.2580   3.7954   5.1394   8.8738  10.0994  10.8441  11.3390
    13.8908  16.1714

     occupation numbers 
     0.0240   0.0240   0.0240   0.0240   0.0000   0.0000   0.0000   0.0000
     0.0000   0.0000

          k =-0.3500 0.5500-0.0500 (   260 PWs)   bands (ev):

    -3.9502   1.1832   2.9476   4.7202   9.4863   9.7862  10.9650  12.0993
    14.2486  16.8795

     occupation numbers 
     0.0240   0.0240   0.0240   0.0240   0.0000   0.0000   0.0000   0.0000
     0.0000   0.0000

          k = 0.5500-0.3500 0.8500 (   259 PWs)   bands (ev):

    -3.1784  -0.0408   2.7168   4.3019   9.2983   9.7114  12.2004  12.4029
    15.1070  15.6232

     occupation numbers 
     0.0240   0.0240   0.0240   0.0240   0.0000   0.0000   0.0000   0.0000
     0.0000   0.0000

          k = 0.4500-0.2500 0.7500 (   254 PWs)   bands (ev):

    -2.8251  -0.5260   2.7739   4.0932   8.9589   9.9293  12.3070  13.0332
    14.2735  17.0149

     occupation numbers 
     0.0240   0.0240   0.0240   0.0240   0.0000   0.0000   0.0000   0.0000
     0.0000   0.0000

          k = 0.3500-0.1500 0.6500 (   258 PWs)   bands (ev):

    -3.4203   0.3190   2.9859   4.1857   8.7868  10.2839  11.2397  12.3911
    16.0891  16.2203

     occupation numbers 
     0.0240   0.0240   0.0240   0.0240   0.0000   0.0000   0.0000   0.0000
     0.0000   0.0000

          k = 0.2500-0.0500 0.5500 (   264 PWs)   bands (ev):

    -4.1815   1.6336   3.3989   4.5342   8.5717  10.1096  10.7327  12.2789
    14.8022  17.2203

     occupation numbers 
     0.0240   0.0240   0.0240   0.0240   0.0000   0.0000   0.0000   0.0000
     0.0000   0.0000

          k =-0.1500 0.5500 0.1500 (   258 PWs)   bands (ev):

    -4.2591   1.7076   3.9412   4.3159   7.9917   9.9360  11.4497  11.9227
    15.9822  15.9841

     occupation numbers 
     0.0120   0.0120   0.0120   0.0120   0.0000   0.0000   0.0000   0.0000
     0.0000   0.0000

          k =-0.2500 0.6500 0.0500 (   258 PWs)   bands (ev):

    -3.6813   0.9967   3.0703   3.9724   8.3200   9.5384  11.4069  13.2630
    15.8082  17.3696

     occupation numbers 
     0.0240   0.0240   0.0240   0.0240   0.0000   0.0000   0.0000   0.0000
     0.0000   0.0000

          k = 0.6500-0.2500 0.9500 (   254 PWs)   bands (ev):

    -2.9282   0.1051   2.4381   3.5034   9.0566  10.0076  10.9862  14.2133
    15.3485  16.4778

     occupation numbers 
     0.0240   0.0240   0.0240   0.0240   0.0000   0.0000   0.0000   0.0000
     0.0000   0.0000

          k = 0.5500-0.1500 0.8500 (   259 PWs)   bands (ev):

    -2.3233  -0.5960   2.1211   3.3496   9.3059  10.4356  11.8772  13.1671
    14.3324  17.6286

     occupation numbers 
     0.0240   0.0240   0.0240   0.0240   0.0000   0.0000   0.0000   0.0000
     0.0000   0.0000

          k = 0.4500-0.0500 0.7500 (   258 PWs)   bands (ev):

    -2.7052  -0.1607   2.1168   3.5895   9.6865  10.1457  11.2228  14.0068
    14.1993  16.0757

     occupation numbers 
     0.0240   0.0240   0.0240   0.0240   0.0000   0.0000   0.0000   0.0000
     0.0000   0.0000

          k = 0.3500 0.0500 0.6500 (   257 PWs)   bands (ev):

    -3.4691   0.6486   2.6486   4.0852   9.2486  10.1916  10.5531  13.1453
    15.3465  16.2697

     occupation numbers 
     0.0240   0.0240   0.0240   0.0240   0.0000   0.0000   0.0000   0.0000
     0.0000   0.0000

          k =-0.1500 0.7500 0.1500 (   253 PWs)   bands (ev):

    -3.1774   0.3671   2.9233   3.7852   7.4254   8.9682  13.2901  13.4069
    17.7558  17.8688

     occupation numbers 
     0.0120   0.0120   0.0120   0.0120   0.0000   0.0000   0.0000   0.0000
     0.0000   0.0000

          k = 0.7500-0.1500 1.0500 (   253 PWs)   bands (ev):

    -2.4836  -0.3718   2.6419   3.2122   8.0000   8.7940  12.9566  15.2154
    15.8021  17.7562

     occupation numbers 
     0.0240   0.0240   0.0240   0.0240   0.0000   0.0000   0.0000   0.0000
     0.0000   0.0000

          k = 0.6500-0.0500 0.9500 (   259 PWs)   bands (ev):

    -1.7446  -1.0598   2.2801   2.7965   8.8554   9.6305  12.5106  13.4081
    16.3142  17.4758

     occupation numbers 
     0.0240   0.0240   0.0240   0.0240   0.0000   0.0000   0.0000   0.0000
     0.0000   0.0000

          k = 0.5500 0.0500 0.8500 (   258 PWs)   bands (ev):

    -2.0370  -0.7616   1.9443   3.1407   9.2238  11.0696  11.8342  12.3104
    15.2485  16.9176

     occupation numbers 
     0.0240   0.0240   0.0240   0.0240   0.0000   0.0000   0.0000   0.0000
     0.0000   0.0000

          k = 0.4500 0.1500 0.7500 (   254 PWs)   bands (ev):

    -2.7336  -0.3441   2.3981   3.7604   9.4672   9.8147  12.0597  13.2998
    14.1404  16.8722

     occupation numbers 
     0.0240   0.0240   0.0240   0.0240   0.0000   0.0000   0.0000   0.0000
     0.0000   0.0000

          k =-0.1500-1.0500 0.1500 (   258 PWs)   bands (ev):

    -1.8733  -1.0808   2.4838   3.5512   7.1466   8.5555  14.9895  15.2155
    16.2031  16.3652

     occupation numbers 
     0.0120   0.0120   0.0120   0.0120   0.0000   0.0000   0.0000   0.0000
     0.0000   0.0000

          k =-0.2500-0.9500 0.0500 (   257 PWs)   bands (ev):

    -1.8153  -1.0818   2.5521   3.0583   7.9353   8.6356  13.8155  14.7300
    16.3329  17.4247

     occupation numbers 
     0.0240   0.0240   0.0240   0.0240   0.0000   0.0000   0.0000   0.0000
     0.0000   0.0000

          k =-0.3500-0.8500-0.0500 (   255 PWs)   bands (ev):

    -2.3428  -0.4663   2.3189   3.0533   8.9211   9.7613  11.7042  14.3602
    15.2925  17.5036

     occupation numbers 
     0.0240   0.0240   0.0240   0.0240   0.0000   0.0000   0.0000   0.0000
     0.0000   0.0000

          k =-0.1500-0.8500 0.1500 (   256 PWs)   bands (ev):

    -2.5448  -0.3582   2.6285   3.6300   7.2426   8.6954  14.2117  14.2489
    17.1134  17.2661

     occupation numbers 
     0.0120   0.0120   0.0120   0.0120   0.0000   0.0000   0.0000   0.0000
     0.0000   0.0000

          k =-0.2500-0.7500 0.0500 (   256 PWs)   bands (ev):

    -3.1130   0.3276   2.8156   3.5194   8.1275   9.0942  12.1512  14.2629
    16.6675  16.8335

     occupation numbers 
     0.0240   0.0240   0.0240   0.0240   0.0000   0.0000   0.0000   0.0000
     0.0000   0.0000

          k =-0.1500-0.6500 0.1500 (   259 PWs)   bands (ev):

    -3.7574   1.0589   3.3668   4.0144   7.6781   9.3828  12.3527  12.6433
    16.8950  17.1020

     occupation numbers 
     0.0120   0.0120   0.0120   0.0120   0.0000   0.0000   0.0000   0.0000
     0.0000   0.0000

          k =-0.2500 0.2500 0.2500 (   268 PWs)   bands (ev):

    -4.9571   2.3417   5.5273   5.5273   8.3965   9.8512   9.8512  13.2759
    13.6388  13.6388

     occupation numbers 
     0.0040   0.0040   0.0040   0.0040   0.0000   0.0000   0.0000   0.0000
     0.0000   0.0000

          k =-0.3500 0.3500 0.1500 (   264 PWs)   bands (ev):

    -4.6164   1.7771   4.3237   5.5823   8.9427   9.8771  10.1113  12.7808
    13.0035  15.7958

     occupation numbers 
     0.0120   0.0120   0.0120   0.0120   0.0000   0.0000   0.0000   0.0000
     0.0000   0.0000

          k =-0.4500 0.4500 0.0500 (   262 PWs)   bands (ev):

    -4.0426   1.2152   2.8984   5.1992   9.0332  10.6739  10.9104  12.4152
    12.7434  16.6956

     occupation numbers 
     0.0120   0.0120   0.0120   0.0120   0.0000   0.0000   0.0000   0.0000
     0.0000   0.0000

          k = 0.4500-0.4500 0.9500 (   256 PWs)   bands (ev):

    -3.2901   0.3141   2.2173   4.6981   8.4972  11.5361  11.7514  13.0447
    13.2868  15.0194

     occupation numbers 
     0.0120   0.0120   0.0120   0.0120   0.0000   0.0000   0.0000   0.0000
     0.0000   0.0000

          k = 0.3500-0.3500 0.8500 (   256 PWs)   bands (ev):

    -2.6682  -0.5082   2.2573   4.2838   8.0364  11.8253  11.9590  12.8601
    14.8411  14.9140

     occupation numbers 
     0.0120   0.0120   0.0120   0.0120   0.0000   0.0000   0.0000   0.0000
     0.0000   0.0000

          k = 0.2500-0.2500 0.7500 (   254 PWs)   bands (ev):

    -2.9841  -0.1068   2.6800   4.0455   7.7948  10.7739  12.1429  12.3229
    16.5916  17.0630

     occupation numbers 
     0.0120   0.0120   0.0120   0.0120   0.0000   0.0000   0.0000   0.0000
     0.0000   0.0000

          k =-0.2500 0.4500 0.2500 (   265 PWs)   bands (ev):

    -4.3742   1.2177   4.7919   4.8429   8.6541   9.7408  10.5905  12.1131
    15.2958  15.3221

     occupation numbers 
     0.0120   0.0120   0.0120   0.0120   0.0000   0.0000   0.0000   0.0000
     0.0000   0.0000

          k =-0.3500 0.5500 0.1500 (   260 PWs)   bands (ev):

    -3.8859   0.7616   3.4283   4.7286   9.0698   9.7975  11.4280  11.7094
    14.9453  16.3875

     occupation numbers 
     0.0240   0.0240   0.0240   0.0240   0.0000   0.0000   0.0000   0.0000
     0.0000   0.0000

          k = 0.5500-0.3500 1.0500 (   257 PWs)   bands (ev):

    -3.2003   0.2798   2.2770   4.2239   9.2416  10.3042  11.5431  12.9977
    14.8518  15.1075

     occupation numbers 
     0.0240   0.0240   0.0240   0.0240   0.0000   0.0000   0.0000   0.0000
     0.0000   0.0000

          k = 0.4500-0.2500 0.9500 (   259 PWs)   bands (ev):

    -2.4588  -0.4302   1.8961   3.7428   8.7015  11.2629  12.3633  12.8724
    14.0906  15.6864

     occupation numbers 
     0.0240   0.0240   0.0240   0.0240   0.0000   0.0000   0.0000   0.0000
     0.0000   0.0000

          k = 0.3500-0.1500 0.8500 (   257 PWs)   bands (ev):

    -2.3819  -0.5241   2.1800   3.4730   8.3473  10.6110  11.7756  14.2386
    14.5248  17.4796

     occupation numbers 
     0.0240   0.0240   0.0240   0.0240   0.0000   0.0000   0.0000   0.0000
     0.0000   0.0000

          k =-0.2500 0.6500 0.2500 (   257 PWs)   bands (ev):

    -3.4971   0.3019   3.3430   4.2568   8.0846  11.0411  11.2838  11.6677
    16.5626  17.4587

     occupation numbers 
     0.0120   0.0120   0.0120   0.0120   0.0000   0.0000   0.0000   0.0000
     0.0000   0.0000

          k = 0.6500-0.2500 1.1500 (   255 PWs)   bands (ev):

    -2.9070  -0.1024   2.5511   3.7520   8.5317  10.6976  11.1596  13.3421
    15.4079  17.2754

     occupation numbers 
     0.0240   0.0240   0.0240   0.0240   0.0000   0.0000   0.0000   0.0000
     0.0000   0.0000

          k = 0.5500-0.1500 1.0500 (   260 PWs)   bands (ev):

    -2.1873  -0.6086   2.0736   3.0271   9.9307  10.3288  11.0734  13.0752
    15.2669  17.2133

     occupation numbers 
     0.0240   0.0240   0.0240   0.0240   0.0000   0.0000   0.0000   0.0000
     0.0000   0.0000

          k = 0.4500-0.0500 0.9500 (   258 PWs)   bands (ev):

    -1.6953  -1.0452   2.1374   2.6367   9.8935  10.6103  11.3912  12.1618
    16.3130  17.5143

     occupation numbers 
     0.0240   0.0240   0.0240   0.0240   0.0000   0.0000   0.0000   0.0000
     0.0000   0.0000

          k =-0.2500-1.1500 0.2500 (   255 PWs)   bands (ev):

    -2.4572  -0.5131   2.1717   3.9009   7.5834  10.5682  13.0403  13.0799
    15.9212  16.0322

     occupation numbers 
     0.0120   0.0120   0.0120   0.0120   0.0000   0.0000   0.0000   0.0000
     0.0000   0.0000

          k =-0.3500-1.0500 0.1500 (   260 PWs)   bands (ev):

    -1.9329  -0.9080   1.9647   3.3406   8.2543  10.5179  12.5574  13.5025
    15.2350  16.6395

     occupation numbers 
     0.0240   0.0240   0.0240   0.0240   0.0000   0.0000   0.0000   0.0000
     0.0000   0.0000

          k =-0.2500-0.9500 0.2500 (   259 PWs)   bands (ev):

    -2.0220  -0.8746   1.8955   3.8278   7.4740  10.4609  13.7365  14.0335
    15.0114  15.1712

     occupation numbers 
     0.0120   0.0120   0.0120   0.0120   0.0000   0.0000   0.0000   0.0000
     0.0000   0.0000

          k =-0.3500 0.3500 0.3500 (   256 PWs)   bands (ev):

    -4.2325   0.6496   5.2481   5.2481   8.1043   9.8305   9.8305  14.1197
    14.6872  14.6872

     occupation numbers 
     0.0040   0.0040   0.0040   0.0040   0.0000   0.0000   0.0000   0.0000
     0.0000   0.0000

          k =-0.4500 0.4500 0.2500 (   258 PWs)   bands (ev):

    -3.8560   0.2285   4.1661   5.1932   8.6747   9.8986   9.9943  13.9533
    14.2159  15.5519

     occupation numbers 
     0.0120   0.0120   0.0120   0.0120   0.0000   0.0000   0.0000   0.0000
     0.0000   0.0000

          k = 0.4500-0.4500 1.1500 (   258 PWs)   bands (ev):

    -3.2710  -0.0435   2.7376   4.7379   8.5510  10.9573  11.0449  13.8804
    14.0009  15.0022

     occupation numbers 
     0.0120   0.0120   0.0120   0.0120   0.0000   0.0000   0.0000   0.0000
     0.0000   0.0000

          k = 0.3500-0.3500 1.0500 (   259 PWs)   bands (ev):

    -2.5529  -0.3966   1.8300   4.2212   7.9398  12.3601  12.5640  13.1283
    13.9743  14.1215

     occupation numbers 
     0.0120   0.0120   0.0120   0.0120   0.0000   0.0000   0.0000   0.0000
     0.0000   0.0000

          k =-0.3500 0.5500 0.3500 (   257 PWs)   bands (ev):

    -3.6017  -0.1883   4.4307   4.7883   8.5332   9.6509  10.3233  13.4817
    15.1418  16.8889

     occupation numbers 
     0.0120   0.0120   0.0120   0.0120   0.0000   0.0000   0.0000   0.0000
     0.0000   0.0000

          k = 0.5500-0.3500 1.2500 (   253 PWs)   bands (ev):

    -3.1560  -0.4003   3.3046   4.4611   9.1250   9.4625  11.4156  13.2918
    15.0995  16.3541

     occupation numbers 
     0.0240   0.0240   0.0240   0.0240   0.0000   0.0000   0.0000   0.0000
     0.0000   0.0000

          k = 0.4500-0.2500 1.1500 (   256 PWs)   bands (ev):

    -2.5796  -0.5121   2.2487   3.8557   8.7885  10.5799  12.8089  13.1663
    13.4546  16.5060

     occupation numbers 
     0.0240   0.0240   0.0240   0.0240   0.0000   0.0000   0.0000   0.0000
     0.0000   0.0000

          k =-0.3500-1.2500 0.3500 (   254 PWs)   bands (ev):

    -2.9093  -0.5499   2.9222   4.4051   8.2198  11.0003  11.3223  12.9635
    15.5124  15.9305

     occupation numbers 
     0.0120   0.0120   0.0120   0.0120   0.0000   0.0000   0.0000   0.0000
     0.0000   0.0000

          k =-0.4500 0.4500 0.4500 (   266 PWs)   bands (ev):

    -3.5114  -0.5745   5.1003   5.1003   7.9430   9.6892   9.6892  13.9464
    16.3753  16.3753

     occupation numbers 
     0.0040   0.0040   0.0040   0.0040   0.0000   0.0000   0.0000   0.0000
     0.0000   0.0000

          k = 0.4500-0.4500 1.3500 (   256 PWs)   bands (ev):

    -3.2670  -0.6846   4.2090   4.9113   8.5307   9.6832  10.0945  14.3791
    15.6449  16.0480

     occupation numbers 
     0.0120   0.0120   0.0120   0.0120   0.0000   0.0000   0.0000   0.0000
     0.0000   0.0000

     highest occupied, lowest unoccupied level (ev):     6.2550    6.9322

!    total energy              =     -15.83457679 Ry
     Harris-Foulkes estimate   =     -15.83457678 Ry
     estimated scf accuracy    <          3.8E-09 Ry

     The total energy is the sum of the following terms:

     one-electron contribution =       4.84129956 Ry
     hartree contribution      =       1.06951370 Ry
     xc contribution           =      -4.81741817 Ry
     ewald contribution        =     -16.92797188 Ry

     convergence has been achieved in   5 iterations

     Forces acting on atoms (Ry/au):

     atom    1 type  1   force =     0.00000000    0.00000000    0.00000000
     atom    2 type  1   force =     0.00000000    0.00000000    0.00000000
     The non-local contrib.  to forces
     atom    1 type  1   force =     0.00000000   -0.00000000    0.00000000
     atom    2 type  1   force =     0.00000000    0.00000000    0.00000000
     The ionic contribution  to forces
     atom    1 type  1   force =    -0.00000000   -0.00000000   -0.00000000
     atom    2 type  1   force =    -0.00000000    0.00000000   -0.00000000
     The local contribution  to forces
     atom    1 type  1   force =     0.00000000   -0.00000000   -0.00000000
     atom    2 type  1   force =    -0.00000000    0.00000000    0.00000000
     The core correction contribution to forces
     atom    1 type  1   force =     0.00000000    0.00000000    0.00000000
     atom    2 type  1   force =     0.00000000    0.00000000    0.00000000
     The Hubbard contrib.    to forces
     atom    1 type  1   force =     0.00000000    0.00000000    0.00000000
     atom    2 type  1   force =     0.00000000    0.00000000    0.00000000
     The SCF correction term to forces
     atom    1 type  1   force =    -0.00000000   -0.00000000    0.00000000
     atom    2 type  1   force =     0.00000000   -0.00000000   -0.00000000

     Total force =     0.000000     Total SCF correction =     0.000000


     entering subroutine stress ...

          total   stress  (Ry/bohr**3)                   (kbar)     P=  -15.77
  -0.00010723   0.00000000  -0.00000000        -15.77      0.00     -0.00
   0.00000000  -0.00010723  -0.00000000          0.00    -15.77     -0.00
   0.00000000  -0.00000000  -0.00010723          0.00     -0.00    -15.77

     kinetic stress (kbar)   2298.62     -0.00      0.00
                               -0.00   2298.62      0.00
                               -0.00     -0.00   2298.62

     local   stress (kbar)  -1424.70      0.00      0.00
                                0.00  -1424.70     -0.00
                                0.00     -0.00  -1424.70

     nonloc. stress (kbar)   2872.11      0.00      0.00
                                0.00   2872.11      0.00
                                0.00      0.00   2872.11

     hartree stress (kbar)    198.67     -0.00     -0.00
                               -0.00    198.67      0.00
                               -0.00      0.00    198.67

     exc-cor stress (kbar)   -816.02      0.00      0.00
                                0.00   -816.02      0.00
                                0.00      0.00   -816.02

     corecor stress (kbar)      0.00      0.00      0.00
                                0.00      0.00      0.00
                                0.00      0.00      0.00

     ewald   stress (kbar)  -3144.45      0.00      0.00
                                0.00  -3144.45      0.00
                                0.00      0.00  -3144.45

     hubbard stress (kbar)      0.00      0.00      0.00
                                0.00      0.00      0.00
                                0.00      0.00      0.00

     london  stress (kbar)      0.00      0.00      0.00
                                0.00      0.00      0.00
                                0.00      0.00      0.00

     dft-nl  stress (kbar)      0.00      0.00      0.00
                                0.00      0.00      0.00
                                0.00      0.00      0.00



     Writing output data file Si_e15_k10.save

     init_run     :      1.16s CPU      1.23s WALL (       1 calls)
     electrons    :     25.46s CPU     28.07s WALL (       1 calls)
     forces       :      0.12s CPU      0.17s WALL (       1 calls)
     stress       :      0.44s CPU      0.47s WALL (       1 calls)

     Called by init_run:
     wfcinit      :      1.09s CPU      1.16s WALL (       1 calls)
     potinit      :      0.00s CPU      0.01s WALL (       1 calls)

     Called by electrons:
     c_bands      :     22.94s CPU     25.46s WALL (       6 calls)
     sum_band     :      2.49s CPU      2.58s WALL (       6 calls)
     v_of_rho     :      0.01s CPU      0.01s WALL (       6 calls)
     v_h          :      0.01s CPU      0.00s WALL (       6 calls)
     v_xc         :      0.00s CPU      0.01s WALL (       6 calls)
     mix_rho      :      0.01s CPU      0.00s WALL (       6 calls)

     Called by c_bands:
     init_us_2    :      0.33s CPU      0.33s WALL (    1650 calls)
     cegterg      :     22.60s CPU     25.06s WALL (     660 calls)

     Called by sum_band:

     Called by *egterg:
     h_psi        :     16.25s CPU     17.74s WALL (    3054 calls)
     g_psi        :      0.12s CPU      0.16s WALL (    2284 calls)
     cdiaghg      :      2.62s CPU      3.08s WALL (    2834 calls)
     cegterg:over :      1.89s CPU      2.06s WALL (    2284 calls)
     cegterg:upda :      1.34s CPU      1.53s WALL (    2284 calls)
     cegterg:last :      0.55s CPU      0.57s WALL (     801 calls)

     Called by h_psi:
     h_psi:vloc   :     14.31s CPU     15.66s WALL (    3054 calls)
     h_psi:vnl    :      1.83s CPU      1.97s WALL (    3054 calls)
     add_vuspsi   :      0.68s CPU      0.75s WALL (    3054 calls)

     General routines
     calbec       :      1.18s CPU      1.25s WALL (    3274 calls)
     fft          :      0.02s CPU      0.02s WALL (      30 calls)
     fftw         :     14.98s CPU     16.09s WALL (   47026 calls)
     davcio       :      0.14s CPU      0.22s WALL (    2420 calls)

     Parallel routines

     PWSCF        :    28.01s CPU        30.87s WALL


   This run was terminated on:  15: 3:25  27Mar2012            

=------------------------------------------------------------------------------=
   JOB DONE.
=------------------------------------------------------------------------------=
