<PP_INFO>
Generated using Fritz-Haber code                                                
Author: unknown    Generation date: as well                                     
Info: automatically converted from FHI format                                   
    1        The Pseudo was generated with a Scalar-Relativistic Calculation
nl pn  l   occ               Rcut            Rcut US             E pseu
2s  0  0  1.00      0.00000000000      0.00000000000      0.00000000000
2p  0  1  0.00      0.00000000000      0.00000000000      0.00000000000
3d  0  2  0.00      0.00000000000      0.00000000000      0.00000000000
3f  0  3  0.00      0.00000000000      0.00000000000      0.00000000000
</PP_INFO>


<PP_HEADER>
   0                   Version Number
  Li                   Element
   NC                  Norm - Conserving pseudopotential
    T                  Nonlinear Core Correction
SLA  PZ   NOGX NOGC    PZ   Exchange-Correlation functional
    1.00000000000      Z valence
    0.00000000000      Total energy
  0.0000000  0.0000000 Suggested cutoff for wfc and rho
    3                  Max angular momentum component
  433                  Number of points in mesh
    4    3             Number of Wavefunctions, Number of Projectors
 Wavefunctions         nl  l   occ
                       2s  0  1.00
                       2p  1  0.00
                       3d  2  0.00
                       3f  3  0.00
</PP_HEADER>


<PP_MESH>
  <PP_R>
  2.08333333333E-03  2.13479166667E-03  2.18752102083E-03  2.24155279005E-03
  2.29691914396E-03  2.35365304682E-03  2.41178827707E-03  2.47135944752E-03
  2.53240202587E-03  2.59495235591E-03  2.65904767910E-03  2.72472615678E-03
  2.79202689285E-03  2.86098995710E-03  2.93165640904E-03  3.00406832235E-03
  3.07826880991E-03  3.15430204951E-03  3.23221331013E-03  3.31204897889E-03
  3.39385658867E-03  3.47768484641E-03  3.56358366212E-03  3.65160417857E-03
  3.74179880179E-03  3.83422123219E-03  3.92892649662E-03  4.02597098109E-03
  4.12541246432E-03  4.22731015219E-03  4.33172471295E-03  4.43871831336E-03
  4.54835465570E-03  4.66069901570E-03  4.77581828139E-03  4.89378099294E-03
  5.01465738346E-03  5.13851942083E-03  5.26544085053E-03  5.39549723954E-03
  5.52876602135E-03  5.66532654208E-03  5.80526010767E-03  5.94865003233E-03
  6.09558168813E-03  6.24614255582E-03  6.40042227695E-03  6.55851270719E-03
  6.72050797106E-03  6.88650451795E-03  7.05660117954E-03  7.23089922867E-03
  7.40950243962E-03  7.59251714988E-03  7.78005232348E-03  7.97221961587E-03
  8.16913344038E-03  8.37091103636E-03  8.57767253896E-03  8.78954105067E-03
  9.00664271462E-03  9.22910678968E-03  9.45706572738E-03  9.69065525085E-03
  9.93001443554E-03  1.01752857921E-02  1.04266153512E-02  1.06841527503E-02
  1.09480513233E-02  1.12184681910E-02  1.14955643553E-02  1.17795047948E-02
  1.20704585633E-02  1.23685988898E-02  1.26741032824E-02  1.29871536334E-02
  1.33079363282E-02  1.36366423555E-02  1.39734674217E-02  1.43186120670E-02
  1.46722817851E-02  1.50346871451E-02  1.54060439176E-02  1.57865732024E-02
  1.61765015605E-02  1.65760611490E-02  1.69854898594E-02  1.74050314589E-02
  1.78349357360E-02  1.82754586487E-02  1.87268624773E-02  1.91894159805E-02
  1.96633945552E-02  2.01490804007E-02  2.06467626866E-02  2.11567377250E-02
  2.16793091468E-02  2.22147880827E-02  2.27634933483E-02  2.33257516340E-02
  2.39018976994E-02  2.44922745726E-02  2.50972337545E-02  2.57171354283E-02
  2.63523486733E-02  2.70032516856E-02  2.76702320022E-02  2.83536867326E-02
  2.90540227949E-02  2.97716571580E-02  3.05070170898E-02  3.12605404119E-02
  3.20326757601E-02  3.28238828513E-02  3.36346327578E-02  3.44654081869E-02
  3.53167037691E-02  3.61890263522E-02  3.70828953031E-02  3.79988428171E-02
  3.89374142347E-02  3.98991683663E-02  4.08846778249E-02  4.18945293672E-02
  4.29293242426E-02  4.39896785514E-02  4.50762236116E-02  4.61896063348E-02
  4.73304896112E-02  4.84995527046E-02  4.96974916564E-02  5.09250197004E-02
  5.21828676870E-02  5.34717845188E-02  5.47925375964E-02  5.61459132751E-02
  5.75327173330E-02  5.89537754511E-02  6.04099337047E-02  6.19020590672E-02
  6.34310399262E-02  6.49977866124E-02  6.66032319417E-02  6.82483317707E-02
  6.99340655654E-02  7.16614369849E-02  7.34314744784E-02  7.52452318980E-02
  7.71037891259E-02  7.90082527173E-02  8.09597565594E-02  8.29594625464E-02
  8.50085612713E-02  8.71082727347E-02  8.92598470713E-02  9.14645652939E-02
  9.37237400567E-02  9.60387164361E-02  9.84108727321E-02  1.00841621289E-01
  1.03332409334E-01  1.05884719845E-01  1.08500072425E-01  1.11180024214E-01
  1.13926170812E-01  1.16740147231E-01  1.19623628868E-01  1.22578332501E-01
  1.25606017314E-01  1.28708485941E-01  1.31887585544E-01  1.35145208907E-01
  1.38483295567E-01  1.41903832967E-01  1.45408857642E-01  1.49000456425E-01
  1.52680767699E-01  1.56451982661E-01  1.60316346633E-01  1.64276160395E-01
  1.68333781557E-01  1.72491625961E-01  1.76752169122E-01  1.81117947700E-01
  1.85591561008E-01  1.90175672565E-01  1.94873011677E-01  1.99686375066E-01
  2.04618628530E-01  2.09672708654E-01  2.14851624558E-01  2.20158459685E-01
  2.25596373639E-01  2.31168604068E-01  2.36878468588E-01  2.42729366762E-01
  2.48724782121E-01  2.54868284240E-01  2.61163530861E-01  2.67614270073E-01
  2.74224342544E-01  2.80997683804E-01  2.87938326594E-01  2.95050403261E-01
  3.02338148222E-01  3.09805900483E-01  3.17458106225E-01  3.25299321449E-01
  3.33334214688E-01  3.41567569791E-01  3.50004288765E-01  3.58649394697E-01
  3.67508034746E-01  3.76585483205E-01  3.85887144640E-01  3.95418557112E-01
  4.05185395473E-01  4.15193474741E-01  4.25448753567E-01  4.35957337781E-01
  4.46725484024E-01  4.57759603479E-01  4.69066265685E-01  4.80652202448E-01
  4.92524311848E-01  5.04689662351E-01  5.17155497011E-01  5.29929237787E-01
  5.43018489960E-01  5.56431046662E-01  5.70174893515E-01  5.84258213385E-01
  5.98689391255E-01  6.13477019219E-01  6.28629901594E-01  6.44157060163E-01
  6.60067739549E-01  6.76371412716E-01  6.93077786610E-01  7.10196807939E-01
  7.27738669096E-01  7.45713814222E-01  7.64132945434E-01  7.83007029186E-01
  8.02347302807E-01  8.22165281186E-01  8.42472763631E-01  8.63281840893E-01
  8.84604902363E-01  9.06454643451E-01  9.28844073145E-01  9.51786521751E-01
  9.75295648839E-01  9.99385451365E-01  1.02407027201E+00  1.04936480773E+00
  1.07528411848E+00  1.10184363621E+00  1.12905917402E+00  1.15694693562E+00
  1.18552352493E+00  1.21480595600E+00  1.24481166311E+00  1.27555851119E+00
  1.30706480642E+00  1.33934930714E+00  1.37243123502E+00  1.40633028653E+00
  1.44106664460E+00  1.47666099073E+00  1.51313451720E+00  1.55050893977E+00
  1.58880651058E+00  1.62805003139E+00  1.66826286717E+00  1.70946895999E+00
  1.75169284330E+00  1.79495965653E+00  1.83929516005E+00  1.88472575050E+00
  1.93127847654E+00  1.97898105491E+00  2.02786188696E+00  2.07795007557E+00
  2.12927544244E+00  2.18186854587E+00  2.23576069895E+00  2.29098398821E+00
  2.34757129272E+00  2.40555630365E+00  2.46497354435E+00  2.52585839090E+00
  2.58824709315E+00  2.65217679636E+00  2.71768556323E+00  2.78481239664E+00
  2.85359726283E+00  2.92408111523E+00  2.99630591877E+00  3.07031467497E+00
  3.14615144744E+00  3.22386138819E+00  3.30349076448E+00  3.38508698636E+00
  3.46869863492E+00  3.55437549121E+00  3.64216856584E+00  3.73213012941E+00
  3.82431374361E+00  3.91877429308E+00  4.01556801812E+00  4.11475254816E+00
  4.21638693610E+00  4.32053169343E+00  4.42724882625E+00  4.53660187226E+00
  4.64865593851E+00  4.76347774019E+00  4.88113564037E+00  5.00169969069E+00
  5.12524167305E+00  5.25183514237E+00  5.38155547039E+00  5.51447989051E+00
  5.65068754380E+00  5.79025952613E+00  5.93327893643E+00  6.07983092616E+00
  6.23000275004E+00  6.38388381796E+00  6.54156574827E+00  6.70314242225E+00
  6.86871004008E+00  7.03836717807E+00  7.21221484737E+00  7.39035655410E+00
  7.57289836098E+00  7.75994895050E+00  7.95161968958E+00  8.14802469591E+00
  8.34928090590E+00  8.55550814427E+00  8.76682919544E+00  8.98336987656E+00
  9.20525911251E+00  9.43262901259E+00  9.66561494920E+00  9.90435563845E+00
  1.01489932227E+01  1.03996733553E+01  1.06565452872E+01  1.09197619558E+01
  1.11894800761E+01  1.14658602340E+01  1.17490669818E+01  1.20392689362E+01
  1.23366388789E+01  1.26413538592E+01  1.29535952996E+01  1.32735491035E+01
  1.36014057663E+01  1.39373604887E+01  1.42816132928E+01  1.46343691412E+01
  1.49958380589E+01  1.53662352590E+01  1.57457812699E+01  1.61347020673E+01
  1.65332292083E+01  1.69415999698E+01  1.73600574890E+01  1.77888509090E+01
  1.82282355264E+01  1.86784729440E+01  1.91398312257E+01  1.96125850569E+01
  2.00970159078E+01  2.05934122008E+01  2.11020694821E+01  2.16232905983E+01
  2.21573858761E+01  2.27046733073E+01  2.32654787379E+01  2.38401360628E+01
  2.44289874235E+01  2.50323834129E+01  2.56506832832E+01  2.62842551603E+01
  2.69334762627E+01  2.75987331264E+01  2.82804218347E+01  2.89789482540E+01
  2.96947282758E+01  3.04281880643E+01  3.11797643094E+01  3.19499044879E+01
  3.27390671287E+01  3.35477220868E+01  3.43763508224E+01  3.52254466877E+01
  3.60955152209E+01  3.69870744468E+01  3.79006551856E+01  3.88368013687E+01
  3.97960703625E+01  4.07790333005E+01  4.17862754230E+01  4.28183964260E+01
  4.38760108177E+01  4.49597482849E+01  4.60702540675E+01  4.72081893430E+01
  4.83742316198E+01  4.95690751408E+01  5.07934312967E+01  5.20480290498E+01
  5.33336153673E+01  5.46509556669E+01  5.60008342718E+01  5.73840548784E+01
  5.88014410339E+01  6.02538366274E+01  6.17421063921E+01  6.32671364200E+01
  6.48298346895E+01  6.64311316064E+01  6.80719805571E+01  6.97533584768E+01
  7.14762664312E+01  7.32417302120E+01  7.50508009483E+01  7.69045557317E+01
  7.88040982583E+01
  </PP_R>
  <PP_RAB>
  5.08330975490E-05  5.20886750585E-05  5.33752653324E-05  5.46936343861E-05
  5.60445671555E-05  5.74288679642E-05  5.88473610029E-05  6.03008908197E-05
  6.17903228230E-05  6.33165437967E-05  6.48804624285E-05  6.64830098505E-05
  6.81251401938E-05  6.98078311565E-05  7.15320845861E-05  7.32989270754E-05
  7.51094105741E-05  7.69646130153E-05  7.88656389568E-05  8.08136202390E-05
  8.28097166589E-05  8.48551166604E-05  8.69510380419E-05  8.90987286816E-05
  9.12994672800E-05  9.35545641218E-05  9.58653618556E-05  9.82332362935E-05
  1.00659597230E-04  1.03145889281E-04  1.05693592747E-04  1.08304224488E-04
  1.10979338832E-04  1.13720528502E-04  1.16529425556E-04  1.19407702367E-04
  1.22357072615E-04  1.25379292309E-04  1.28476160829E-04  1.31649522001E-04
  1.34901265195E-04  1.38233326445E-04  1.41647689608E-04  1.45146387542E-04
  1.48731503314E-04  1.52405171446E-04  1.56169579180E-04  1.60026967786E-04
  1.63979633891E-04  1.68029930848E-04  1.72180270140E-04  1.76433122812E-04
  1.80791020945E-04  1.85256559163E-04  1.89832396174E-04  1.94521256360E-04
  1.99325931392E-04  2.04249281897E-04  2.09294239160E-04  2.14463806867E-04
  2.19761062897E-04  2.25189161150E-04  2.30751333431E-04  2.36450891367E-04
  2.42291228383E-04  2.48275821724E-04  2.54408234521E-04  2.60692117914E-04
  2.67131213226E-04  2.73729354193E-04  2.80490469241E-04  2.87418583832E-04
  2.94517822852E-04  3.01792413077E-04  3.09246685680E-04  3.16885078816E-04
  3.24712140263E-04  3.32732530127E-04  3.40951023621E-04  3.49372513905E-04
  3.58002014998E-04  3.66844664769E-04  3.75905727989E-04  3.85190599470E-04
  3.94704807277E-04  4.04454016017E-04  4.14444030212E-04  4.24680797758E-04
  4.35170413463E-04  4.45919122676E-04  4.56933325006E-04  4.68219578133E-04
  4.79784601713E-04  4.91635281375E-04  5.03778672825E-04  5.16222006044E-04
  5.28972689593E-04  5.42038315026E-04  5.55426661408E-04  5.69145699944E-04
  5.83203598733E-04  5.97608727622E-04  6.12369663194E-04  6.27495193875E-04
  6.42994325164E-04  6.58876284995E-04  6.75150529234E-04  6.91826747307E-04
  7.08914867965E-04  7.26425065204E-04  7.44367764314E-04  7.62753648093E-04
  7.81593663201E-04  8.00899026682E-04  8.20681232641E-04  8.40952059087E-04
  8.61723574947E-04  8.83008147248E-04  9.04818448485E-04  9.27167464162E-04
  9.50068500527E-04  9.73535192490E-04  9.97581511745E-04  1.02222177508E-03
  1.04747065293E-03  1.07334317806E-03  1.09985475455E-03  1.12702116699E-03
  1.15485858982E-03  1.18338359699E-03  1.21261317183E-03  1.24256471718E-03
  1.27325606569E-03  1.30470549051E-03  1.33693171613E-03  1.36995392952E-03
  1.40379179157E-03  1.43846544883E-03  1.47399554541E-03  1.51040323538E-03
  1.54771019530E-03  1.58593863712E-03  1.62511132146E-03  1.66525157110E-03
  1.70638328491E-03  1.74853095204E-03  1.79171966656E-03  1.83597514232E-03
  1.88132372834E-03  1.92779242443E-03  1.97540889731E-03  2.02420149707E-03
  2.07419927405E-03  2.12543199612E-03  2.17793016643E-03  2.23172504154E-03
  2.28684865006E-03  2.34333381172E-03  2.40121415687E-03  2.46052414654E-03
  2.52129909296E-03  2.58357518056E-03  2.64738948752E-03  2.71278000786E-03
  2.77978567405E-03  2.84844638020E-03  2.91880300579E-03  2.99089744004E-03
  3.06477260681E-03  3.14047249019E-03  3.21804216070E-03  3.29752780207E-03
  3.37897673878E-03  3.46243746423E-03  3.54795966960E-03  3.63559427344E-03
  3.72539345199E-03  3.81741067025E-03  3.91170071381E-03  4.00831972144E-03
  4.10732521856E-03  4.20877615146E-03  4.31273292240E-03  4.41925742558E-03
  4.52841308399E-03  4.64026488717E-03  4.75487942988E-03  4.87232495180E-03
  4.99267137811E-03  5.11599036115E-03  5.24235532307E-03  5.37184149955E-03
  5.50452598459E-03  5.64048777641E-03  5.77980782449E-03  5.92256907775E-03
  6.06885653397E-03  6.21875729036E-03  6.37236059543E-03  6.52975790214E-03
  6.69104292232E-03  6.85631168250E-03  7.02566258106E-03  7.19919644681E-03
  7.37701659905E-03  7.55922890905E-03  7.74594186310E-03  7.93726662712E-03
  8.13331711281E-03  8.33421004549E-03  8.54006503362E-03  8.75100463995E-03
  8.96715445455E-03  9.18864316958E-03  9.41560265587E-03  9.64816804147E-03
  9.88647779209E-03  1.01306737936E-02  1.03809014363E-02  1.06373097017E-02
  1.09000512514E-02  1.11692825173E-02  1.14451637955E-02  1.17278593412E-02
  1.20175374669E-02  1.23143706424E-02  1.26185355972E-02  1.29302134265E-02
  1.32495896981E-02  1.35768545637E-02  1.39122028714E-02  1.42558342823E-02
  1.46079533891E-02  1.49687698378E-02  1.53384984528E-02  1.57173593646E-02
  1.61055781409E-02  1.65033859209E-02  1.69110195532E-02  1.73287217362E-02
  1.77567411630E-02  1.81953326698E-02  1.86447573867E-02  1.91052828942E-02
  1.95771833817E-02  2.00607398112E-02  2.05562400845E-02  2.10639792146E-02
  2.15842595012E-02  2.21173907109E-02  2.26636902614E-02  2.32234834109E-02
  2.37971034511E-02  2.43848919064E-02  2.49871987365E-02  2.56043825453E-02
  2.62368107941E-02  2.68848600208E-02  2.75489160633E-02  2.82293742900E-02
  2.89266398350E-02  2.96411278389E-02  3.03732636965E-02  3.11234833098E-02
  3.18922333476E-02  3.26799715113E-02  3.34871668076E-02  3.43142998278E-02
  3.51618630335E-02  3.60303610504E-02  3.69203109684E-02  3.78322426493E-02
  3.87666990427E-02  3.97242365091E-02  4.07054251509E-02  4.17108491521E-02
  4.27411071261E-02  4.37968124722E-02  4.48785937402E-02  4.59870950056E-02
  4.71229762522E-02  4.82869137657E-02  4.94796005357E-02  5.07017466689E-02
  5.19540798116E-02  5.32373455830E-02  5.45523080189E-02  5.58997500270E-02
  5.72804738526E-02  5.86953015568E-02  6.01450755052E-02  6.16306588702E-02
  6.31529361443E-02  6.47128136671E-02  6.63112201646E-02  6.79491073027E-02
  6.96274502531E-02  7.13472482743E-02  7.31095253067E-02  7.49153305818E-02
  7.67657392472E-02  7.86618530066E-02  8.06048007758E-02  8.25957393550E-02
  8.46358541171E-02  8.67263597138E-02  8.88685007987E-02  9.10635527684E-02
  9.33128225218E-02  9.56176492381E-02  9.79794051743E-02  1.00399496482E-01
  1.02879364045E-01  1.05420484337E-01  1.08024370300E-01  1.10692572247E-01
  1.13426678781E-01  1.16228317747E-01  1.19099157195E-01  1.22040906378E-01
  1.25055316766E-01  1.28144183090E-01  1.31309344412E-01  1.34552685219E-01
  1.37876136544E-01  1.41281677117E-01  1.44771334541E-01  1.48347186505E-01
  1.52011362011E-01  1.55766042653E-01  1.59613463906E-01  1.63555916465E-01
  1.67595747602E-01  1.71735362567E-01  1.75977226023E-01  1.80323863506E-01
  1.84777862934E-01  1.89341876149E-01  1.94018620489E-01  1.98810880416E-01
  2.03721509162E-01  2.08753430438E-01  2.13909640170E-01  2.19193208282E-01
  2.24607280527E-01  2.30155080356E-01  2.35839910840E-01  2.41665156638E-01
  2.47634286007E-01  2.53750852872E-01  2.60018498937E-01  2.66440955861E-01
  2.73022047471E-01  2.79765692044E-01  2.86675904637E-01  2.93756799482E-01
  3.01012592429E-01  3.08447603462E-01  3.16066259267E-01  3.23873095871E-01
  3.31872761339E-01  3.40070018544E-01  3.48469748002E-01  3.57076950778E-01
  3.65896751462E-01  3.74934401223E-01  3.84195280933E-01  3.93684904373E-01
  4.03408921511E-01  4.13373121872E-01  4.23583437982E-01  4.34045948900E-01
  4.44766883838E-01  4.55752625869E-01  4.67009715728E-01  4.78544855706E-01
  4.90364913642E-01  5.02476927009E-01  5.14888107106E-01  5.27605843352E-01
  5.40637707683E-01  5.53991459062E-01  5.67675048101E-01  5.81696621789E-01
  5.96064528348E-01  6.10787322198E-01  6.25873769056E-01  6.41332851152E-01
  6.57173772575E-01  6.73405964758E-01  6.90039092087E-01  7.07083057662E-01
  7.24548009186E-01  7.42444345013E-01  7.60782720335E-01  7.79574053527E-01
  7.98829532649E-01  8.18560622106E-01  8.38779069472E-01  8.59496912488E-01
  8.80726486226E-01  9.02480430436E-01  9.24771697068E-01  9.47613557985E-01
  9.71019612867E-01  9.95003797305E-01  1.01958039110E+00  1.04476402676E+00
  1.07056969822E+00  1.09701276977E+00  1.12410898518E+00  1.15187447711E+00
  1.18032577670E+00  1.20947982338E+00  1.23935397502E+00  1.26996601820E+00
  1.30133417885E+00  1.33347713307E+00  1.36641401826E+00  1.40016444451E+00
  1.43474850629E+00  1.47018679439E+00  1.50650040821E+00  1.54371096830E+00
  1.58184062921E+00  1.62091209276E+00  1.66094862145E+00  1.70197405240E+00
  1.74401281149E+00  1.78708992793E+00  1.83123104915E+00  1.87646245607E+00
  1.92281107873E+00
  </PP_RAB>
</PP_MESH>


<PP_NLCC>
  5.67068482186E-02  5.67068481542E-02  5.67068480848E-02  5.67068480102E-02
  5.67068479299E-02  5.67068478435E-02  5.67068477506E-02  5.67068476506E-02
  5.67068475431E-02  5.67068474274E-02  5.67068473029E-02  5.67068471689E-02
  5.67068470248E-02  5.67068468698E-02  5.67068467030E-02  5.67068465235E-02
  5.67068463305E-02  5.67068461228E-02  5.67068458993E-02  5.67068456589E-02
  5.67068454003E-02  5.67068451221E-02  5.67068448227E-02  5.67068445007E-02
  5.67068441543E-02  5.67068437815E-02  5.67068433805E-02  5.67068429492E-02
  5.67068424851E-02  5.67068419858E-02  5.67068414487E-02  5.67068408708E-02
  5.67068402492E-02  5.67068395804E-02  5.67068388610E-02  5.67068380870E-02
  5.67068372544E-02  5.67068363587E-02  5.67068353951E-02  5.67068343585E-02
  5.67068332433E-02  5.67068320437E-02  5.67068307532E-02  5.67068293649E-02
  5.67068278714E-02  5.67068262648E-02  5.67068245366E-02  5.67068226774E-02
  5.67068206775E-02  5.67068185261E-02  5.67068162118E-02  5.67068137223E-02
  5.67068110443E-02  5.67068081636E-02  5.67068050648E-02  5.67068017314E-02
  5.67067981458E-02  5.67067942888E-02  5.67067901400E-02  5.67067856773E-02
  5.67067808769E-02  5.67067757134E-02  5.67067701592E-02  5.67067641850E-02
  5.67067577590E-02  5.67067508471E-02  5.67067434125E-02  5.67067354158E-02
  5.67067268147E-02  5.67067175634E-02  5.67067076129E-02  5.67066969105E-02
  5.67066853995E-02  5.67066730187E-02  5.67066597028E-02  5.67066453811E-02
  5.67066299779E-02  5.67066134116E-02  5.67065955946E-02  5.67065764326E-02
  5.67065558244E-02  5.67065336611E-02  5.67065098255E-02  5.67064841917E-02
  5.67064566246E-02  5.67064269785E-02  5.67063950970E-02  5.67063608122E-02
  5.67063239432E-02  5.67062842959E-02  5.67062416614E-02  5.67061958152E-02
  5.67061465163E-02  5.67060935053E-02  5.67060365035E-02  5.67059752116E-02
  5.67059093075E-02  5.67058384455E-02  5.67057622537E-02  5.67056803328E-02
  5.67055922534E-02  5.67054975543E-02  5.67053957399E-02  5.67052862775E-02
  5.67051685950E-02  5.67050420775E-02  5.67049060646E-02  5.67047598466E-02
  5.67046026612E-02  5.67044336893E-02  5.67042520514E-02  5.67040568025E-02
  5.67038469274E-02  5.67036213361E-02  5.67033788577E-02  5.67031182346E-02
  5.67028381164E-02  5.67025370528E-02  5.67022134865E-02  5.67018657455E-02
  5.67014920341E-02  5.67010904249E-02  5.67006588482E-02  5.67001950823E-02
  5.66996967424E-02  5.66991612683E-02  5.66985859122E-02  5.66979677252E-02
  5.66973035420E-02  5.66965899663E-02  5.66958233533E-02  5.66949997924E-02
  5.66941150878E-02  5.66931647380E-02  5.66921439142E-02  5.66910474366E-02
  5.66898697493E-02  5.66886048939E-02  5.66872464804E-02  5.66857876568E-02
  5.66842210763E-02  5.66825388620E-02  5.66807325702E-02  5.66787931495E-02
  5.66767108989E-02  5.66744754216E-02  5.66720755769E-02  5.66694994274E-02
  5.66667341845E-02  5.66637661483E-02  5.66605806449E-02  5.66571619593E-02
  5.66534932629E-02  5.66495565375E-02  5.66453324936E-02  5.66408004835E-02
  5.66359384086E-02  5.66307226212E-02  5.66251278194E-02  5.66191269356E-02
  5.66126910180E-02  5.66057891040E-02  5.65983880870E-02  5.65904525729E-02
  5.65819447298E-02  5.65728241268E-02  5.65630475643E-02  5.65525688926E-02
  5.65413388212E-02  5.65293047154E-02  5.65164103818E-02  5.65025958410E-02
  5.64877970868E-02  5.64719458326E-02  5.64549692424E-02  5.64367896477E-02
  5.64173242483E-02  5.63964847970E-02  5.63741772677E-02  5.63503015059E-02
  5.63247508610E-02  5.62974118002E-02  5.62681635029E-02  5.62368774360E-02
  5.62034169081E-02  5.61676366037E-02  5.61293820966E-02  5.60884893409E-02
  5.60447841419E-02  5.59980816041E-02  5.59481855586E-02  5.58948879686E-02
  5.58379683139E-02  5.57771929544E-02  5.57123144748E-02  5.56430710089E-02
  5.55691855478E-02  5.54903652305E-02  5.54063006214E-02  5.53166649751E-02
  5.52211134921E-02  5.51192825686E-02  5.50107890434E-02  5.48952294469E-02
  5.47721792569E-02  5.46411921667E-02  5.45017993716E-02  5.43535088824E-02
  5.41958048715E-02  5.40281470643E-02  5.38499701826E-02  5.36606834540E-02
  5.34596701992E-02  5.32462875110E-02  5.30198660410E-02  5.27797099115E-02
  5.25250967710E-02  5.22552780143E-02  5.19694791893E-02  5.16669006165E-02
  5.13467182459E-02  5.10080847821E-02  5.06501311075E-02  5.02719680378E-02
  4.98726884455E-02  4.94513697891E-02  4.90070770896E-02  4.85388663964E-02
  4.80457887880E-02  4.75268949547E-02  4.69812404122E-02  4.64078913972E-02
  4.58059314953E-02  4.51744690556E-02  4.45126454425E-02  4.38196441767E-02
  4.30947010166E-02  4.23371150251E-02  4.15462606652E-02  4.07216009625E-02
  3.98627017616E-02  3.89692470962E-02  3.80410556790E-02  3.70780985019E-02
  3.60805175153E-02  3.50486453364E-02  3.39830259016E-02  3.28844359503E-02
  3.17539071832E-02  3.05927488911E-02  2.94025707979E-02  2.81853057930E-02
  2.69432321563E-02  2.56789947919E-02  2.43956248865E-02  2.30965572972E-02
  2.17856448431E-02  2.04671685279E-02  1.91458425554E-02  1.78268128144E-02
  1.65156472987E-02  1.52183166932E-02  1.39411631001E-02  1.26908545883E-02
  1.14743229348E-02  1.02986815763E-02  9.17112041482E-03  8.09877371054E-03
  7.08855685412E-03  6.14696734726E-03  5.27984482495E-03  4.49208444256E-03
  3.78729742581E-03  3.16741205537E-03  2.63220784254E-03  2.17776113880E-03
  1.79444067141E-03  1.47244111888E-03  1.20308554268E-03  9.78730488512E-04
  7.92673899453E-04  6.39066554771E-04  5.12827630359E-04  4.09564853085E-04
  3.25499598190E-04  2.57397160463E-04  2.02502320287E-04  1.58480227385E-04
  1.23362539886E-04  9.54986845160E-05  7.35120452840E-05  5.62608420908E-05
  4.28034263159E-05  3.23676963875E-05  2.43243214270E-05  1.81634540565E-05
  1.34746132161E-05  9.92942327633E-06  7.26690582849E-06  5.28103436956E-06
  3.81027879367E-06  2.72888538615E-06  1.93965816969E-06  1.36802834842E-06
  9.57219677688E-07  6.64338382267E-07  4.57236358122E-07  3.12015506541E-07
  2.11058923424E-07  1.41491131013E-07  9.39844895638E-08  6.18423159621E-08
  4.03010685161E-08  2.60042772225E-08  1.66097845656E-08  1.04994156809E-08
  6.56653711784E-09  4.06221841081E-09  2.48501114302E-09  1.50283505835E-09
  8.98232843520E-10  5.30438289655E-10  3.09399565449E-10  1.78201283392E-10
  1.01314684936E-10  5.68414621669E-11  3.14591363591E-11  1.71700295145E-11
  9.23822262049E-12  4.89830449000E-12  2.55850493550E-12  1.31597990245E-12
  6.66300778748E-13  3.31956422813E-13  1.62670625499E-13  7.83750837749E-14
  3.71113748066E-14  1.72628002752E-14  7.88499220912E-15  3.53494984036E-15
  1.55474347045E-15  6.70539755712E-16  2.83447466813E-16  1.17378851957E-16
  4.75946590856E-17  1.88866216170E-17  7.33076459086E-18  2.78169216536E-18
  1.03132131605E-18  3.73388240213E-19  1.31934393980E-19  4.54742132382E-20
  0.00000000000E+00  0.00000000000E+00  0.00000000000E+00  0.00000000000E+00
  0.00000000000E+00  0.00000000000E+00  0.00000000000E+00  0.00000000000E+00
  0.00000000000E+00  0.00000000000E+00  0.00000000000E+00  0.00000000000E+00
  0.00000000000E+00  0.00000000000E+00  0.00000000000E+00  0.00000000000E+00
  0.00000000000E+00  0.00000000000E+00  0.00000000000E+00  0.00000000000E+00
  0.00000000000E+00  0.00000000000E+00  0.00000000000E+00  0.00000000000E+00
  0.00000000000E+00  0.00000000000E+00  0.00000000000E+00  0.00000000000E+00
  0.00000000000E+00  0.00000000000E+00  0.00000000000E+00  0.00000000000E+00
  0.00000000000E+00  0.00000000000E+00  0.00000000000E+00  0.00000000000E+00
  0.00000000000E+00  0.00000000000E+00  0.00000000000E+00  0.00000000000E+00
  0.00000000000E+00  0.00000000000E+00  0.00000000000E+00  0.00000000000E+00
  0.00000000000E+00  0.00000000000E+00  0.00000000000E+00  0.00000000000E+00
  0.00000000000E+00  0.00000000000E+00  0.00000000000E+00  0.00000000000E+00
  0.00000000000E+00  0.00000000000E+00  0.00000000000E+00  0.00000000000E+00
  0.00000000000E+00  0.00000000000E+00  0.00000000000E+00  0.00000000000E+00
  0.00000000000E+00  0.00000000000E+00  0.00000000000E+00  0.00000000000E+00
  0.00000000000E+00  0.00000000000E+00  0.00000000000E+00  0.00000000000E+00
  0.00000000000E+00  0.00000000000E+00  0.00000000000E+00  0.00000000000E+00
  0.00000000000E+00  0.00000000000E+00  0.00000000000E+00  0.00000000000E+00
  0.00000000000E+00  0.00000000000E+00  0.00000000000E+00  0.00000000000E+00
  0.00000000000E+00
</PP_NLCC>


<PP_LOCAL>
 -1.76415470516E+00 -1.76415479293E+00 -1.76415487848E+00 -1.76415496186E+00
 -1.76415504310E+00 -1.76415512226E+00 -1.76415519939E+00 -1.76415527452E+00
 -1.76415534770E+00 -1.76415541897E+00 -1.76415548836E+00 -1.76415555593E+00
 -1.76415562170E+00 -1.76415568572E+00 -1.76415574801E+00 -1.76415580862E+00
 -1.76415586757E+00 -1.76415592490E+00 -1.76415598064E+00 -1.76415603483E+00
 -1.76415608748E+00 -1.76415613862E+00 -1.76415618830E+00 -1.76415623653E+00
 -1.76415628333E+00 -1.76415632874E+00 -1.76415637278E+00 -1.76415641546E+00
 -1.76415645683E+00 -1.76415649689E+00 -1.76415653566E+00 -1.76415657318E+00
 -1.76415660945E+00 -1.76415664451E+00 -1.76415667836E+00 -1.76415671103E+00
 -1.76415674254E+00 -1.76415677290E+00 -1.76415680214E+00 -1.76415683027E+00
 -1.76415685730E+00 -1.76415688326E+00 -1.76415690817E+00 -1.76415693203E+00
 -1.76415695488E+00 -1.76415697673E+00 -1.76415699760E+00 -1.76415701750E+00
 -1.76415703646E+00 -1.76415705450E+00 -1.76415707165E+00 -1.76415708791E+00
 -1.76415710333E+00 -1.76415711793E+00 -1.76415713173E+00 -1.76415714477E+00
 -1.76415715707E+00 -1.76415716868E+00 -1.76415717963E+00 -1.76415718997E+00
 -1.76415719973E+00 -1.76415720897E+00 -1.76415721775E+00 -1.76415722611E+00
 -1.76415723413E+00 -1.76415724187E+00 -1.76415724941E+00 -1.76415725683E+00
 -1.76415726423E+00 -1.76415727170E+00 -1.76415727936E+00 -1.76415728732E+00
 -1.76415729571E+00 -1.76415730467E+00 -1.76415731437E+00 -1.76415732497E+00
 -1.76415733665E+00 -1.76415734962E+00 -1.76415736411E+00 -1.76415738034E+00
 -1.76415739860E+00 -1.76415741915E+00 -1.76415744232E+00 -1.76415746844E+00
 -1.76415749789E+00 -1.76415753107E+00 -1.76415756842E+00 -1.76415761041E+00
 -1.76415765757E+00 -1.76415771045E+00 -1.76415776967E+00 -1.76415783589E+00
 -1.76415790983E+00 -1.76415799228E+00 -1.76415808408E+00 -1.76415818615E+00
 -1.76415829949E+00 -1.76415842518E+00 -1.76415856438E+00 -1.76415871836E+00
 -1.76415888850E+00 -1.76415907626E+00 -1.76415928326E+00 -1.76415951122E+00
 -1.76415976202E+00 -1.76416003768E+00 -1.76416034040E+00 -1.76416067252E+00
 -1.76416103660E+00 -1.76416143540E+00 -1.76416187188E+00 -1.76416234924E+00
 -1.76416287094E+00 -1.76416344071E+00 -1.76416406256E+00 -1.76416474082E+00
 -1.76416548016E+00 -1.76416628560E+00 -1.76416716254E+00 -1.76416811681E+00
 -1.76416915468E+00 -1.76417028289E+00 -1.76417150869E+00 -1.76417283990E+00
 -1.76417428489E+00 -1.76417585269E+00 -1.76417755299E+00 -1.76417939620E+00
 -1.76418139351E+00 -1.76418355692E+00 -1.76418589933E+00 -1.76418843457E+00
 -1.76419117749E+00 -1.76419414402E+00 -1.76419735124E+00 -1.76420081746E+00
 -1.76420456229E+00 -1.76420860677E+00 -1.76421297342E+00 -1.76421768635E+00
 -1.76422277139E+00 -1.76422825615E+00 -1.76423417020E+00 -1.76424054515E+00
 -1.76424741480E+00 -1.76425481526E+00 -1.76426278512E+00 -1.76427136559E+00
 -1.76428060066E+00 -1.76429053730E+00 -1.76430122558E+00 -1.76431271892E+00
 -1.76432507423E+00 -1.76433835216E+00 -1.76435261729E+00 -1.76436793838E+00
 -1.76438438856E+00 -1.76440204559E+00 -1.76442099213E+00 -1.76444131599E+00
 -1.76446311038E+00 -1.76448647418E+00 -1.76451151226E+00 -1.76453833574E+00
 -1.76456706229E+00 -1.76459781641E+00 -1.76463072976E+00 -1.76466594144E+00
 -1.76470359832E+00 -1.76474385527E+00 -1.76478687551E+00 -1.76483283090E+00
 -1.76488190215E+00 -1.76493427910E+00 -1.76499016096E+00 -1.76504975651E+00