#                                                           
# ooooo   oooo ..     ooo        ooo ooooooooo.    .oooo.   
#  `88.   .8" .88.    `88.       .88 `88"   `Y8b  dP"  `Yb  
#   `88. .8" .8"88.    888b     d"88  88     888 88      88 
#    `88.8" .8" `88.   8 Y88. .P  88  88oooo888" 88      88 
#     `88" .88ooo888.  8  `888"   88  88    `88b 88      88 
#      88 .8"     `88. 8    Y     88  88    .88P `8b    d8" 
#     o88o88o      888o8          88 o88bood8P"   `Ybod8P"  
#                                                           
#              GPL Version 3.1.2 Revision 292               
#                 http://www.yambo-code.org                 
#
# BSK|Identifier              :9393
#    |Dimension               :80
#    |Bands                   :1 - 2
#    |Exchange           [res]: yes
#    |Correlation        [res]: yes
#    |Kernel`s coupling       : no
#    |Exchange           [cpl]: no
#    |Correlation        [cpl]: no
#    |ALDA kernel in R-space  : no
#    |RL vectors    [exchange]:4523
#    |RL vectors [correlation]:109
#    |E/h energy range    [ev]:-1.000000 - -1.000000
#    |Coupling range     [o/o]: 100.0000 -  100.0000
#  W |Interaction is diagonal : no
#    |Matrix size             :109
#    |Bands                   :1 - 20
#    |e/h energy range    [ev]:-1.000000 - -1.000000
#    |Poles              [o/o]: 100.0000
#    |Rl vectors in the sum   :7675
#    |[r,Vnl] included        : yes
#    |Longitudinal Gauge      : no
#    |Field direction         :0.1000E-4  0.000000  0.000000
#    |Columbian Cutoff        :none
#    |xc-Kernel               :none
# RIM|RL components      [col]:1
#    |Random points      [col]:******
#
   CRYSTAL
   PRIMVEC
    36.88365   0.00000   0.00000
     0.00000  13.22943   0.00000
     0.00000   0.00000  13.22943
   PRIMCOORD
     35    1
   -1  18.59680   6.61471   6.61471
       1   0.55564   6.61471   6.61471
       1   2.72526   6.61471   6.61471
       1   4.89489   6.61471   6.61471
       1   7.06452   6.61471   6.61471
       1   9.23414   6.61471   6.61471
       1  11.40377   6.61471   6.61471
       1  13.57339   6.61471   6.61471
       1  15.74302   6.61471   6.61471
       1  17.91265   6.61471   6.61471
       1  20.08227   6.61471   6.61471
       1  22.25190   6.61471   6.61471
       1  24.42153   6.61471   6.61471
       1  26.59115   6.61471   6.61471
       1  28.76078   6.61471   6.61471
       1  30.93041   6.61471   6.61471
       1  33.10003   6.61471   6.61471
       1  35.26966   6.61471   6.61471
       1   1.61399   6.61471   6.61471
       1   3.78362   6.61471   6.61471
       1   5.95324   6.61471   6.61471
       1   8.12287   6.61471   6.61471
       1  10.29250   6.61471   6.61471
       1  12.46212   6.61471   6.61471
       1  14.63175   6.61471   6.61471
       1  16.80138   6.61471   6.61471
       1  18.97100   6.61471   6.61471
       1  21.14063   6.61471   6.61471
       1  23.31026   6.61471   6.61471
       1  25.47988   6.61471   6.61471
       1  27.64951   6.61471   6.61471
       1  29.81913   6.61471   6.61471
       1  31.98876   6.61471   6.61471
       1  34.15839   6.61471   6.61471
       1  36.32801   6.61471   6.61471
   BEGIN_BLOCK_DATAGRID_3D
   Generated with YPP 3  1  2
   BEGIN_DATAGRID_3D
    119   44   44
    0.000     0.000     0.000   
    36.88365   0.00000   0.00000
     0.00000  13.22943   0.00000
     0.00000   0.00000  13.22943
   0.3938E-7
   0.1852E-7
   0.8339E-8
   0.2130E-8
   0.3946E-9
   0.3565E-8
   0.2178E-7
   0.4031E-7
   0.1939E-7
   0.7950E-8
   0.1875E-8
   0.4497E-9
   0.4119E-8
   0.2250E-7
   0.4177E-7
   0.2070E-7
   0.7648E-8
   0.1808E-8
   0.4837E-9
   0.4579E-8
   0.2263E-7
   0.4330E-7
   0.2184E-7
   0.7368E-8
   0.1823E-8
   0.5525E-9
   0.4889E-8
   0.2230E-7
   0.4430E-7
   0.2220E-7
   0.6953E-8
   0.1718E-8
   0.7259E-9
   0.5191E-8
   0.2204E-7
   0.4468E-7
   0.2190E-7
   0.6406E-8
   0.1438E-8
   0.1009E-8
   0.5615E-8
   0.2216E-7
   0.4479E-7
   0.2160E-7
   0.5912E-8
   0.1135E-8
   0.1284E-8
   0.6097E-8
   0.2243E-7
   0.4489E-7
   0.2181E-7
   0.5615E-8
   0.9664E-9
   0.1410E-8
   0.6453E-8
   0.2232E-7
   0.4486E-7
   0.2234E-7
   0.5448E-8
   0.9289E-9
   0.1417E-8
   0.6622E-8
   0.2167E-7
   0.4449E-7
   0.2260E-7
   0.5208E-8
   0.8950E-9
   0.1479E-8
   0.6770E-8
   0.2094E-7
   0.4381E-7
   0.2230E-7
   0.4796E-8
   0.7464E-9
   0.1714E-8
   0.7096E-8
   0.2064E-7
   0.4307E-7
   0.2174E-7
   0.4323E-8
   0.5178E-9
   0.2054E-8
   0.7596E-8
   0.2073E-7
   0.4229E-7
   0.2144E-7
   0.3947E-8
   0.3352E-9
   0.2288E-8
   0.8065E-8
   0.2061E-7
   0.4119E-7
   0.2147E-7
   0.3678E-8
   0.2509E-9
   0.2303E-8
   0.8334E-8
   0.1976E-7
   0.3956E-7
   0.2140E-7
   0.3379E-8
   0.2317E-9
   0.2241E-8
   0.8466E-8
   0.1834E-7
   0.3765E-7
   0.2080E-7
   0.2967E-8
   0.2218E-9
   0.2320E-8
   0.8632E-8
   0.1703E-7
   0.3603E-7
   0.1973E-7
   0.2537E-8
   0.1893E-9
   0.2588E-8
   0.8846E-8
   0.1629E-7
   0.7482E-8
   0.2753E-8
   0.5069E-9
   0.5171E-9
   0.690E-10
   0.4124E-9
   0.2181E-8
   0.7664E-8
   0.2755E-8
   0.5282E-9
   0.5150E-9
   0.740E-10
   0.3701E-9
   0.2171E-8
   0.7649E-8
   0.2639E-8
   0.4977E-9
   0.4405E-9
   0.1025E-9
   0.3759E-9
   0.2254E-8
   0.7684E-8
   0.2564E-8
   0.4618E-9
   0.3448E-9
   0.1550E-9
   0.4387E-9
   0.2459E-8
   0.7912E-8
   0.2629E-8
   0.4684E-9
   0.2915E-9
   0.2003E-9
   0.5036E-9
   0.2658E-8
   0.8191E-8
   0.2758E-8
   0.5090E-9
   0.2865E-9
   0.2109E-9
   0.5061E-9
   0.2696E-8
   0.8259E-8
   0.2777E-8
   0.5262E-9
   0.2858E-9
   0.2090E-9
   0.4586E-9
   0.2592E-8
   0.8066E-8
   0.2625E-8
   0.4848E-9
   0.2454E-9
   0.2367E-9
   0.4314E-9
   0.2520E-8
   0.7847E-8
   0.2436E-8
   0.4245E-9
   0.1786E-9
   0.3067E-9
   0.4619E-9
   0.2600E-8
   0.7832E-8
   0.2370E-8
   0.4057E-9
   0.1310E-9
   0.3825E-9
   0.5204E-9
   0.2767E-8
   0.7977E-8
   0.2434E-8
   0.4385E-9
   0.1184E-9
   0.4117E-9
   0.5409E-9
   0.2841E-8
   0.8012E-8
   0.2476E-8
   0.4716E-9
   0.1210E-9
   0.4016E-9
   0.5036E-9
   0.2736E-8
   0.7771E-8
   0.2357E-8
   0.4454E-9
   0.1067E-9
   0.4129E-9
   0.4602E-9
   0.2571E-8
   0.7390E-8
   0.2122E-8
   0.3739E-9
   0.704E-10
   0.4823E-9
   0.4601E-9
   0.2512E-8
   0.7129E-8
   0.1934E-8
   0.3249E-9
   0.392E-10
   0.5793E-9
   0.4939E-9
   0.2580E-8
   0.7051E-8
   0.1876E-8
   0.3341E-9
   0.277E-10
   0.6255E-9
   0.5069E-9
   0.2641E-8
   0.6962E-8
   0.1880E-8
   0.3749E-9
   0.289E-10
   0.5925E-9
   0.4680E-9
   0.2561E-8
   0.2541E-7
   0.1273E-8
   0.2593E-8
   0.5299E-8
   0.3948E-8
   0.2095E-8
   0.1315E-8
   0.2555E-7
   0.1266E-8
   0.2537E-8
   0.5222E-8
   0.3866E-8
   0.2253E-8
   0.1397E-8
   0.2535E-7
   0.1302E-8
   0.2698E-8
   0.5031E-8
   0.3972E-8
   0.2243E-8
   0.1481E-8
   0.2548E-7
   0.1342E-8
   0.2910E-8
   0.4897E-8
   0.4291E-8
   0.2154E-8
   0.1495E-8
   0.2623E-7
   0.1347E-8
   0.2922E-8
   0.4956E-8
   0.4616E-8
   0.2179E-8
   0.1458E-8
   0.2716E-7
   0.1336E-8
   0.2697E-8
   0.5124E-8
   0.4746E-8
   0.2395E-8
   0.1438E-8
   0.2755E-7
   0.1362E-8
   0.2455E-8
   0.5157E-8
   0.4730E-8
   0.2673E-8
   0.1458E-8
   0.2723E-7
   0.1439E-8
   0.2390E-8
   0.4913E-8
   0.4798E-8
   0.2792E-8
   0.1468E-8
   0.2674E-7
   0.1517E-8
   0.2466E-8
   0.4540E-8
   0.5062E-8
   0.2709E-8
   0.1417E-8
   0.2663E-7
   0.1533E-8
   0.2473E-8
   0.4288E-8
   0.5375E-8
   0.2617E-8
   0.1322E-8
   0.2681E-7
   0.1493E-8
   0.2278E-8
   0.4229E-8
   0.5479E-8
   0.2705E-8
   0.1249E-8
   0.2666E-7
   0.1460E-8
   0.1995E-8
   0.4198E-8
   0.5312E-8
   0.2932E-8
   0.1233E-8
   0.2580E-7
   0.1470E-8
   0.1829E-8
   0.4000E-8
   0.5092E-8
   0.3062E-8
   0.1241E-8
   0.2463E-7
   0.1485E-8
   0.1841E-8
   0.3663E-8
   0.5048E-8
   0.2932E-8
   0.1223E-8
   0.2386E-7
   0.1441E-8
   0.1908E-8
   0.3403E-8
   0.5188E-8
   0.2671E-8
   0.1176E-8
   0.2369E-7
   0.1346E-8
   0.1858E-8
   0.3357E-8
   0.5328E-8
   0.2540E-8
   0.1141E-8
   0.2366E-7
   0.1283E-8
   0.1664E-8
   0.3434E-8
   0.5322E-8
   0.2636E-8
   0.1143E-8
   0.480E-10
   0.5896E-8
   0.123E-11
   0.6693E-8
   0.7055E-8
   0.1129E-9
   0.7358E-8
   0.697E-10
   0.6113E-8
   0.615E-12
   0.6819E-8
   0.6877E-8
   0.767E-10
   0.7528E-8
   0.1167E-9
   0.6407E-8
   0.393E-12
   0.6771E-8
   0.6892E-8
   0.748E-10
   0.7624E-8
   0.1414E-9
   0.6639E-8
   0.299E-13
   0.6735E-8
   0.7146E-8
   0.906E-10
   0.7524E-8
   0.1125E-9
   0.6725E-8
   0.310E-12
   0.6890E-8
   0.7401E-8
   0.864E-10
   0.7332E-8
   0.747E-10
   0.6768E-8
   0.104E-10
   0.7183E-8
   0.7407E-8
   0.494E-10
   0.7235E-8
   0.714E-10
   0.6938E-8
   0.360E-10
   0.7371E-8
   0.7201E-8
   0.167E-10
   0.7259E-8
   0.1075E-9
   0.7260E-8
   0.494E-10
   0.7307E-8
   0.7041E-8
   0.635E-11
   0.7234E-8
   0.1486E-9
   0.7560E-8
   0.435E-10
   0.7125E-8
   0.7076E-8
   0.738E-11
   0.7001E-8
   0.1378E-9
   0.7648E-8
   0.453E-10
   0.7069E-8
   0.7181E-8
   0.847E-11
   0.6613E-8
   0.892E-10
   0.7546E-8
   0.763E-10
   0.7193E-8
   0.7112E-8
   0.183E-11
   0.6279E-8
   0.613E-10
   0.7452E-8
   0.1343E-9
   0.7288E-8
   0.6817E-8
   0.237E-11
   0.6117E-8
   0.731E-10
   0.7501E-8
   0.1731E-9
   0.7139E-8
   0.6499E-8
   0.134E-10
   0.6046E-8
   0.1094E-9
   0.7605E-8
   0.1614E-9
   0.6801E-8
   0.6366E-8
   0.136E-10
   0.5894E-8
   0.1205E-9
   0.7575E-8
   0.1379E-9
   0.6552E-8
   0.6394E-8
   0.734E-11
   0.5611E-8
   0.834E-10
   0.7368E-8
   0.1495E-9
   0.6556E-8
   0.6375E-8
   0.883E-11
   0.5308E-8
   0.436E-10
   0.7149E-8
   0.2045E-9
   0.6679E-8
   0.6170E-8
   0.274E-10
   0.5103E-8
   0.1186E-7
   0.1926E-7
   0.1331E-7
   0.9890E-8
   0.1087E-7
   0.7312E-8
   0.2383E-7
   0.1203E-7
   0.2000E-7
   0.1307E-7
   0.9889E-8
   0.1118E-7
   0.7568E-8
   0.2346E-7
   0.1233E-7
   0.2030E-7
   0.1262E-7
   0.1021E-7
   0.1113E-7
   0.7994E-8
   0.2352E-7
   0.1249E-7
   0.2069E-7
   0.1220E-7
   0.1075E-7
   0.1088E-7
   0.8731E-8
   0.2412E-7
   0.1240E-7
   0.2155E-7
   0.1195E-7
   0.1117E-7
   0.1079E-7
   0.9576E-8
   0.2461E-7
   0.1231E-7
   0.2264E-7
   0.1171E-7
   0.1128E-7
   0.1102E-7
   0.1020E-7
   0.2432E-7
   0.1251E-7
   0.2334E-7
   0.1121E-7
   0.1122E-7
   0.1136E-7
   0.1053E-7
   0.2330E-7
   0.1299E-7
   0.2342E-7
   0.1040E-7
   0.1126E-7
   0.1146E-7
   0.1087E-7
   0.2227E-7
   0.1334E-7
   0.2335E-7
   0.9572E-8
   0.1141E-7
   0.1124E-7
   0.1147E-7
   0.2179E-7
   0.1318E-7
   0.2372E-7
   0.9003E-8
   0.1141E-7
   0.1094E-7
   0.1226E-7
   0.2164E-7
   0.1261E-7
   0.2452E-7
   0.8656E-8
   0.1109E-7
   0.1078E-7
   0.1290E-7
   0.2120E-7
   0.1208E-7
   0.2506E-7
   0.8240E-8
   0.1064E-7
   0.1068E-7
   0.1315E-7
   0.2017E-7
   0.1191E-7
   0.2475E-7
   0.7569E-8
   0.1040E-7
   0.1038E-7
   0.1317E-7
   0.1896E-7
   0.1198E-7
   0.2381E-7
   0.6793E-8
   0.1046E-7
   0.9829E-8
   0.1327E-7
   0.1810E-7
   0.1196E-7
   0.2304E-7
   0.6208E-8
   0.1058E-7
   0.9277E-8
   0.1354E-7
   0.1767E-7
   0.1168E-7
   0.2289E-7
   0.5906E-8
   0.1041E-7
   0.9009E-8
   0.1378E-7
   0.1720E-7
   0.1133E-7
   0.2303E-7
   0.5689E-8
   0.9915E-8
   0.9008E-8
   0.1375E-7
   0.1626E-7
   0.3958E-8
   0.1603E-7
   0.1127E-8
   0.2353E-7
   0.2353E-7
   0.743E-11
   0.2249E-7
   0.3985E-8
   0.1691E-7
   0.9627E-9
   0.2338E-7
   0.2413E-7
   0.138E-10
   0.2167E-7
   0.4050E-8
   0.1721E-7
   0.7881E-9
   0.2372E-7
   0.2405E-7
   0.282E-10
   0.2147E-7
   0.4072E-8
   0.1750E-7
   0.6704E-9
   0.2451E-7
   0.2376E-7
   0.732E-10
   0.2196E-7
   0.4020E-8
   0.1834E-7
   0.6069E-9
   0.2514E-7
   0.2394E-7
   0.1593E-9
   0.2235E-7
   0.3979E-8
   0.1957E-7
   0.5319E-9
   0.2519E-7
   0.2467E-7
   0.2477E-9
   0.2183E-7
   0.4050E-8
   0.2050E-7
   0.3979E-9
   0.2488E-7
   0.2540E-7
   0.2993E-9
   0.2053E-7
   0.4221E-8
   0.2078E-7
   0.2439E-9
   0.2477E-7
   0.2551E-7
   0.3451E-9
   0.1932E-7
   0.4349E-8
   0.2085E-7
   0.1386E-9
   0.2497E-7
   0.2506E-7
   0.4496E-9
   0.1874E-7
   0.4299E-8
   0.2141E-7
   0.927E-10
   0.2502E-7
   0.2462E-7
   0.6380E-9
   0.1851E-7
   0.4104E-8
   0.2250E-7
   0.729E-10
   0.2445E-7
   0.2454E-7
   0.8496E-9
   0.1794E-7
   0.3925E-8
   0.2336E-7
   0.453E-10
   0.2344E-7
   0.2453E-7
   0.9867E-9
   0.1679E-7
   0.3876E-8
   0.2327E-7
   0.115E-10
   0.2265E-7
   0.2409E-7
   0.1042E-8
   0.1557E-7
   0.3924E-8
   0.2244E-7
   0.129E-12
   0.2246E-7
   0.2317E-7
   0.1104E-8
   0.1485E-7
   0.3950E-8
   0.2183E-7
   0.792E-11
   0.2257E-7
   0.2231E-7
   0.1241E-8
   0.1455E-7
   0.3895E-8
   0.2201E-7
   0.135E-10
   0.2228E-7
   0.2197E-7
   0.1422E-8
   0.1409E-7
   0.3812E-8
   0.2261E-7
   0.191E-10
   0.2134E-7
   0.2199E-7
   0.1555E-8
   0.1307E-7
   0.933E-10
   0.1647E-7
   0.5079E-8
   0.5589E-8
   0.6566E-8
   0.2148E-8
   0.1818E-7
   0.860E-10
   0.1703E-7
   0.4934E-8
   0.5887E-8
   0.6475E-8
   0.2490E-8
   0.1886E-7
   0.615E-10
   0.1799E-7
   0.5055E-8
   0.5870E-8
   0.6620E-8
   0.2740E-8
   0.1929E-7
   0.465E-10
   0.1888E-7
   0.5188E-8
   0.5766E-8
   0.6835E-8
   0.2930E-8
   0.1943E-7
   0.529E-10
   0.1916E-7
   0.4984E-8
   0.5955E-8
   0.6806E-8
   0.3210E-8
   0.1955E-7
   0.774E-10
   0.1887E-7
   0.4423E-8
   0.6524E-8
   0.6502E-8
   0.3639E-8
   0.1980E-7
   0.1014E-9
   0.1861E-7
   0.3843E-8
   0.7109E-8
   0.6256E-8
   0.4068E-8
   0.1994E-7
   0.1073E-9
   0.1887E-7
   0.3531E-8
   0.7226E-8
   0.6366E-8
   0.4280E-8
   0.1959E-7
   0.1017E-9
   0.1953E-7
   0.3463E-8
   0.6839E-8
   0.6727E-8
   0.4290E-8
   0.1877E-7
   0.991E-10
   0.2001E-7
   0.3380E-8
   0.6409E-8
   0.6878E-8
   0.4365E-8
   0.1797E-7
   0.977E-10
   0.1989E-7
   0.3082E-8
   0.6336E-8
   0.6491E-8
   0.4731E-8
   0.1769E-7
   0.844E-10
   0.1935E-7
   0.2645E-8
   0.6581E-8
   0.5791E-8
   0.5295E-8
   0.1781E-7
   0.598E-10
   0.1882E-7
   0.2279E-8
   0.6771E-8
   0.5277E-8
   0.5685E-8
   0.1776E-7
   0.419E-10
   0.1847E-7
   0.2063E-8
   0.6637E-8
   0.5172E-8
   0.5638E-8
   0.1708E-7
   0.428E-10
   0.1805E-7
   0.1903E-8
   0.6326E-8
   0.5268E-8
   0.5330E-8
   0.1596E-7
   0.617E-10
   0.1736E-7
   0.1682E-8
   0.6155E-8
   0.5189E-8
   0.5151E-8
   0.1497E-7
   0.819E-10
   0.1654E-7
   0.1410E-8
   0.6196E-8
   0.4820E-8
   0.5264E-8
   0.1443E-7
   0.4917E-8
   0.3929E-8
   0.1332E-8
   0.5603E-8
   0.5578E-8
   0.6186E-9
   0.5819E-8
   0.4881E-8
   0.4215E-8
   0.1192E-8
   0.5779E-8
   0.5494E-8
   0.7459E-9
   0.5945E-8
   0.4609E-8
   0.4569E-8
   0.1232E-8
   0.5724E-8
   0.5552E-8
   0.7475E-9
   0.5985E-8
   0.4520E-8
   0.4818E-8
   0.1348E-8
   0.5678E-8
   0.5829E-8
   0.6713E-9
   0.5878E-8
   0.4813E-8
   0.4872E-8
   0.1351E-8
   0.5879E-8
   0.6125E-8
   0.6609E-9
   0.5759E-8
   0.5268E-8
   0.4883E-8
   0.1190E-8
   0.6283E-8
   0.6226E-8
   0.7924E-9
   0.5774E-8
   0.5464E-8
   0.5087E-8
   0.1010E-8
   0.6586E-8
   0.6169E-8
   0.1012E-8
   0.5857E-8
   0.5277E-8
   0.5545E-8
   0.9343E-9
   0.6543E-8
   0.6176E-8
   0.1165E-8
   0.5763E-8
   0.5022E-8
   0.6038E-8
   0.9361E-9
   0.6251E-8
   0.6331E-8
   0.1180E-8
   0.5351E-8
   0.5017E-8
   0.6260E-8
   0.8855E-9
   0.6001E-8
   0.6443E-8
   0.1168E-8
   0.4786E-8
   0.5205E-8
   0.6146E-8
   0.7229E-9
   0.5921E-8
   0.6257E-8
   0.1262E-8
   0.4366E-8
   0.5224E-8
   0.5930E-8
   0.5487E-9
   0.5865E-8
   0.5793E-8
   0.1441E-8
   0.4215E-8
   0.4870E-8
   0.5846E-8
   0.4783E-9
   0.5636E-8
   0.5353E-8
   0.1545E-8
   0.4197E-8
   0.4388E-8
   0.5886E-8
   0.5208E-9
   0.5268E-8
   0.5171E-8
   0.1468E-8
   0.4076E-8
   0.4169E-8
   0.5875E-8
   0.5849E-9
   0.4991E-8
   0.5188E-8
   0.1329E-8
   0.3776E-8
   0.4304E-8
   0.5714E-8
   0.5521E-9
   0.4929E-8
   0.5136E-8
   0.1318E-8
   0.3430E-8
   0.4498E-8
   0.5506E-8
   0.4269E-9
   0.4933E-8
   0.4841E-8
   0.1484E-8
   0.3187E-8
   0.8030E-9
   0.1230E-7
   0.5556E-8
   0.5289E-8
   0.5557E-8
   0.1769E-8
   0.1501E-7
   0.8831E-9
   0.1284E-7
   0.5442E-8
   0.5324E-8
   0.5964E-8
   0.1894E-8
   0.1473E-7
   0.1019E-8
   0.1314E-7
   0.5043E-8
   0.5518E-8
   0.6054E-8
   0.2214E-8
   0.1471E-7
   0.1048E-8
   0.1353E-7
   0.4614E-8
   0.5757E-8
   0.5820E-8
   0.2762E-8
   0.1519E-7
   0.9210E-9
   0.1415E-7
   0.4352E-8
   0.5864E-8
   0.5589E-8
   0.3316E-8
   0.1574E-7
   0.7901E-9
   0.1472E-7
   0.4181E-8
   0.5827E-8
   0.5635E-8
   0.3587E-8
   0.1567E-7
   0.8082E-9
   0.1483E-7
   0.3880E-8
   0.5816E-8
   0.5905E-8
   0.3589E-8
   0.1488E-7
   0.9817E-9
   0.1454E-7
   0.3396E-8
   0.5938E-8
   0.6106E-8
   0.3627E-8
   0.1400E-7
   0.1145E-8
   0.1438E-7
   0.2937E-8
   0.6070E-8
   0.6036E-8
   0.3938E-8
   0.1362E-7
   0.1102E-8
   0.1478E-7
   0.2708E-8
   0.5994E-8
   0.5801E-8
   0.4456E-8
   0.1374E-7
   0.9000E-9
   0.1553E-7
   0.2677E-8
   0.5692E-8
   0.5637E-8
   0.4897E-8
   0.1382E-7
   0.7561E-9
   0.1593E-7
   0.2592E-8
   0.5417E-8
   0.5609E-8
   0.5088E-8
   0.1341E-7
   0.7858E-9
   0.1553E-7
   0.2249E-8
   0.5408E-8
   0.5569E-8
   0.5171E-8
   0.1264E-7
   0.9313E-9
   0.1471E-7
   0.1747E-8
   0.5610E-8
   0.5380E-8
   0.5380E-8
   0.1194E-7
   0.1016E-8
   0.1415E-7
   0.1349E-8
   0.5702E-8
   0.5105E-8
   0.5716E-8
   0.1151E-7
   0.9338E-9
   0.1412E-7
   0.1167E-8
   0.5442E-8
   0.4924E-8
   0.5924E-8
   0.1111E-7
   0.7908E-9
   0.1421E-7
   0.1115E-8
   0.4962E-8
   0.4895E-8
   0.5807E-8
   0.1047E-7
   0.9731E-8
   0.1522E-9
   0.1253E-9
   0.4144E-8
   0.2911E-8
   0.2178E-9
   0.670E-11
   0.1026E-7
   0.1082E-9
   0.1472E-9
   0.4079E-8
   0.3249E-8
   0.2403E-9
   0.588E-12
   0.1086E-7
   0.1246E-9
   0.2232E-9
   0.4237E-8
   0.3260E-8
   0.2401E-9
   0.804E-11
   0.1129E-7
   0.1594E-9
   0.2931E-9
   0.4477E-8
   0.3173E-8
   0.2295E-9
   0.785E-11
   0.1141E-7
   0.1444E-9
   0.2645E-9
   0.4471E-8
   0.3348E-8
   0.2463E-9
   0.460E-11
   0.1138E-7
   0.777E-10
   0.1658E-9
   0.4148E-8
   0.3875E-8
   0.2976E-9
   0.679E-11
   0.1147E-7
   0.257E-10
   0.1033E-9
   0.3827E-8
   0.4431E-8
   0.3271E-9
   0.176E-10
   0.1173E-7
   0.863E-11
   0.1175E-9
   0.3817E-8
   0.4567E-8
   0.2687E-9
   0.311E-10
   0.1191E-7
   0.604E-11
   0.2065E-9
   0.4061E-8
   0.4263E-8
   0.1616E-9
   0.388E-10
   0.1175E-7
   0.426E-11
   0.3116E-9
   0.4156E-8
   0.3954E-8
   0.991E-10
   0.527E-10
   0.1131E-7
   0.766E-12
   0.3321E-9
   0.3788E-8
   0.3980E-8
   0.1124E-9
   0.985E-10
   0.1088E-7
   0.655E-13
   0.2717E-9
   0.3154E-8
   0.4263E-8
   0.1959E-9
   0.1839E-9
   0.1065E-7
   0.354E-13
   0.2155E-9
   0.2699E-8
   0.4428E-8
   0.2833E-9
   0.2510E-9
   0.1050E-7
   0.361E-12
   0.2026E-9
   0.2600E-8
   0.4239E-8
   0.2717E-9
   0.2369E-9
   0.1014E-7
   0.875E-13
   0.2112E-9
   0.2668E-8
   0.3887E-8
   0.1841E-9
   0.1847E-9
   0.9516E-8
   0.394E-11
   0.2042E-9
   0.2562E-8
   0.3689E-8
   0.1211E-9
   0.1770E-9
   0.8826E-8
   0.227E-10
   0.1793E-9
   0.2179E-8
   0.3683E-8
   0.1168E-9
   0.2470E-9
   0.9768E-9
   0.430E-10
   0.2340E-8
   0.2500E-9
   0.5346E-9
   0.1349E-8
   0.779E-10
   0.9835E-9
   0.434E-10
   0.2356E-8
   0.2212E-9
   0.5866E-9
   0.1568E-8
   0.1269E-9
   0.9337E-9
   0.789E-10
   0.2504E-8
   0.2596E-9
   0.5176E-9
   0.1694E-8
   0.1375E-9
   0.9448E-9
   0.1190E-9
   0.2587E-8
   0.3442E-9
   0.3952E-9
   0.1704E-8
   0.945E-10
   0.1062E-8
   0.1116E-9
   0.2424E-8
   0.3974E-9
   0.3362E-9
   0.1745E-8
   0.564E-10
   0.1189E-8
   0.737E-10
   0.2103E-8
   0.3806E-9
   0.3747E-9
   0.1936E-8
   0.560E-10
   0.1170E-8
   0.569E-10
   0.1882E-8
   0.3548E-9
   0.4551E-9
   0.2207E-8
   0.888E-10
   0.1009E-8
   0.761E-10
   0.1888E-8
   0.3886E-9
   0.4708E-9
   0.2341E-8
   0.1177E-9
   0.8772E-9
   0.1124E-9
   0.2014E-8
   0.4743E-9
   0.3938E-9
   0.2247E-8
   0.1009E-9
   0.9000E-9
   0.1165E-9
   0.2022E-8
   0.5228E-9
   0.3110E-9
   0.2103E-8
   0.652E-10
   0.1053E-8
   0.809E-10
   0.1813E-8
   0.4697E-9
   0.2898E-9
   0.2141E-8
   0.552E-10
   0.1174E-8
   0.553E-10
   0.1542E-8
   0.3822E-9
   0.3131E-9
   0.2399E-8
   0.795E-10
   0.1124E-8
   0.669E-10
   0.1392E-8
   0.3638E-9
   0.3107E-9
   0.2671E-8
   0.1129E-9
   0.9668E-9
   0.1119E-9
   0.1371E-8
   0.4432E-9
   0.2483E-9
   0.2710E-8
   0.1049E-9
   0.8637E-9
   0.1426E-9
   0.1343E-8
   0.5530E-9
   0.1804E-9
   0.2523E-8
   0.624E-10
   0.8720E-9
   0.1137E-9
   0.1203E-8
   0.5708E-9
   0.1635E-9
   0.2346E-8
   0.378E-10
   0.9151E-9
   0.654E-10
   0.1016E-8
   0.4770E-9
   0.1976E-9
   0.2333E-8
   0.488E-10
   0.1368E-7
   0.1280E-8
   0.6802E-9
   0.1851E-8
   0.1772E-8
   0.906E-10
   0.1034E-8
   0.1373E-7
   0.1344E-8
   0.6559E-9
   0.1701E-8
   0.1845E-8
   0.1794E-9
   0.1270E-8
   0.1416E-7
   0.1565E-8
   0.7005E-9
   0.1790E-8
   0.1755E-8
   0.2386E-9
   0.1357E-8
   0.1447E-7
   0.1724E-8
   0.7370E-9
   0.1985E-8
   0.1616E-8
   0.2377E-9
   0.1282E-8
   0.1430E-7
   0.1630E-8
   0.6722E-9
   0.2018E-8
   0.1615E-8
   0.2401E-9
   0.1237E-8
   0.1390E-7
   0.1391E-8
   0.5352E-9
   0.1804E-8
   0.1788E-8
   0.3108E-9
   0.1374E-8
   0.1374E-7
   0.1265E-8
   0.4353E-9
   0.1565E-8
   0.1962E-8
   0.4487E-9
   0.1639E-8
   0.1398E-7
   0.1356E-8
   0.4178E-9
   0.1525E-8
   0.1927E-8
   0.5634E-9
   0.1787E-8
   0.1425E-7
   0.1533E-8
   0.4303E-9
   0.1692E-8
   0.1722E-8
   0.5751E-9
   0.1669E-8
   0.1417E-7
   0.1542E-8
   0.3816E-9
   0.1861E-8
   0.1596E-8
   0.5383E-9
   0.1451E-8
   0.1381E-7
   0.1313E-8
   0.2630E-9
   0.1817E-8
   0.1706E-8
   0.5587E-9
   0.1391E-8
   0.1360E-7
   0.1058E-8
   0.1607E-9
   0.1610E-8
   0.1968E-8
   0.6626E-9
   0.1552E-8
   0.1379E-7
   0.9616E-9
   0.1229E-9
   0.1469E-8
   0.2117E-8
   0.7671E-9
   0.1756E-8
   0.1411E-7
   0.1007E-8
   0.1274E-9
   0.1510E-8
   0.2002E-8
   0.7659E-9
   0.1746E-8
   0.1407E-7
   0.1026E-8
   0.1200E-9
   0.1643E-8
   0.1797E-8
   0.6774E-9
   0.1514E-8
   0.1361E-7
   0.8855E-9
   0.709E-10
   0.1676E-8
   0.1763E-8
   0.6110E-9
   0.1306E-8
   0.1318E-7
   0.6609E-9
   0.226E-10
   0.1553E-8
   0.1962E-8
   0.6154E-9
   0.1292E-8
   0.3437E-7
   0.1053E-7
   0.1077E-7
   0.1580E-7
   0.8616E-8
   0.1045E-7
   0.5266E-8
   0.3528E-7
   0.1025E-7
   0.1112E-7
   0.1613E-7
   0.9155E-8
   0.1021E-7
   0.5371E-8
   0.3549E-7
   0.9478E-8
   0.1122E-7
   0.1562E-7
   0.1006E-7
   0.1034E-7
   0.5951E-8
   0.3586E-7
   0.8950E-8
   0.1130E-7
   0.1457E-7
   0.1111E-7
   0.1105E-7
   0.7027E-8
   0.3688E-7
   0.9035E-8
   0.1150E-7
   0.1374E-7
   0.1189E-7
   0.1189E-7
   0.7985E-8
   0.3800E-7
   0.9325E-8
   0.1164E-7
   0.1350E-7
   0.1224E-7
   0.1215E-7
   0.8173E-8
   0.3832E-7
   0.9039E-8
   0.1146E-7
   0.1348E-7
   0.1257E-7
   0.1169E-7
   0.7783E-8
   0.3766E-7
   0.7988E-8
   0.1103E-7
   0.1308E-7
   0.1326E-7
   0.1106E-7
   0.7657E-8
   0.3687E-7
   0.6870E-8
   0.1077E-7
   0.1214E-7
   0.1422E-7
   0.1085E-7
   0.8328E-8
   0.3674E-7
   0.6404E-8
   0.1100E-7
   0.1112E-7
   0.1491E-7
   0.1111E-7
   0.9502E-8
   0.3713E-7
   0.6600E-8
   0.1148E-7
   0.1046E-7
   0.1499E-7
   0.1141E-7
   0.1028E-7
   0.3709E-7
   0.6798E-8
   0.1158E-7
   0.1011E-7
   0.1481E-7
   0.1135E-7
   0.1016E-7
   0.3602E-7
   0.6323E-8
   0.1094E-7
   0.9625E-8
   0.1501E-7
   0.1100E-7
   0.9634E-8
   0.3442E-7
   0.5293E-8
   0.9966E-8
   0.8776E-8
   0.1575E-7
   0.1067E-7
   0.9527E-8
   0.3319E-7
   0.4401E-8
   0.9327E-8
   0.7803E-8
   0.1645E-7
   0.1047E-7
   0.1002E-7
   0.3258E-7
   0.4043E-8
   0.9271E-8
   0.7090E-8
   0.1642E-7
   0.1020E-7
   0.1054E-7
   0.3195E-7
   0.4033E-8
   0.9414E-8
   0.6708E-8
   0.1564E-7
   0.9704E-8
   0.1042E-7
   0.6019E-7
   0.3187E-8
   0.275E-11
   0.4555E-7
   0.3586E-7
   0.2538E-9
   0.6990E-8
   0.6124E-7
   0.3500E-8
   0.168E-12
   0.4616E-7
   0.3662E-7
   0.1462E-9
   0.7096E-8
   0.6132E-7
   0.4063E-8
   0.695E-12
   0.4539E-7
   0.3821E-7
   0.1123E-9
   0.6778E-8
   0.6165E-7
   0.4511E-8
   0.183E-11
   0.4399E-7
   0.4022E-7
   0.1435E-9
   0.6024E-8
   0.6295E-7
   0.4581E-8
   0.117E-10
   0.4327E-7
   0.4159E-7
   0.1798E-9
   0.5355E-8
   0.6451E-7
   0.4506E-8
   0.393E-10
   0.4359E-7
   0.4188E-7
   0.1406E-9
   0.5187E-8
   0.6506E-7
   0.4744E-8
   0.617E-10
   0.4393E-7
   0.4189E-7
   0.554E-10
   0.5404E-8
   0.6429E-7
   0.5450E-8
   0.581E-10
   0.4314E-7
   0.4269E-7
   0.102E-10
   0.5456E-8
   0.6326E-7
   0.6248E-8
   0.571E-10
   0.4125E-7
   0.4428E-7
   0.270E-11
   0.4957E-8
   0.6304E-7
   0.6558E-8
   0.986E-10
   0.3945E-7
   0.4554E-7
   0.473E-11
   0.4167E-8
   0.6344E-7
   0.6321E-8
   0.2068E-9
   0.3859E-7
   0.4548E-7
   0.456E-11
   0.3625E-8
   0.6322E-7
   0.6105E-8
   0.3207E-9
   0.3830E-7
   0.4452E-7
   0.575E-14
   0.3524E-8
   0.6166E-7
   0.6410E-8
   0.3288E-9
   0.3748E-7
   0.4397E-7
   0.781E-11
   0.3605E-8
   0.5945E-7
   0.7168E-8
   0.2586E-9
   0.3566E-7
   0.4451E-7
   0.199E-10
   0.3457E-8
   0.5785E-7
   0.7810E-8
   0.2298E-9
   0.3354E-7
   0.4538E-7
   0.224E-10
   0.3002E-8
   0.5717E-7
   0.7888E-8
   0.3027E-9
   0.3208E-7
   0.4527E-7
   0.291E-10
   0.2553E-8
   0.5643E-7
   0.7624E-8
   0.4508E-9
   0.3137E-7
   0.4385E-7
   0.607E-10
   0.2375E-8
   0.1834E-8
   0.8912E-8
   0.2571E-8
   0.4459E-8
   0.5199E-8
   0.1819E-8
   0.8935E-8
   0.1747E-8
   0.9180E-8
   0.2446E-8
   0.4601E-8
   0.4946E-8
   0.2118E-8
   0.9483E-8
   0.1495E-8
   0.9697E-8
   0.2653E-8
   0.4404E-8
   0.5023E-8
   0.2132E-8
   0.9829E-8
   0.1368E-8
   0.1007E-7
   0.2941E-8
   0.4236E-8
   0.5327E-8
   0.1957E-8
   0.9800E-8
   0.1496E-8
   0.9980E-8
   0.2922E-8
   0.4485E-8
   0.5432E-8
   0.1921E-8
   0.9679E-8
   0.1757E-8
   0.9639E-8
   0.2562E-8
   0.5124E-8
   0.5123E-8
   0.2187E-8
   0.9821E-8
   0.1877E-8
   0.9525E-8
   0.2226E-8
   0.5649E-8
   0.4723E-8
   0.2595E-8
   0.1018E-7
   0.1759E-8
   0.9831E-8
   0.2188E-8
   0.5578E-8
   0.4680E-8
   0.2776E-8
   0.1035E-7
   0.1603E-8
   0.1025E-7
   0.2362E-8
   0.5072E-8
   0.5050E-8
   0.2618E-8
   0.1004E-7
   0.1613E-8
   0.1029E-7
   0.2407E-8
   0.4721E-8
   0.5390E-8
   0.2430E-8
   0.9482E-8
   0.1754E-8
   0.9875E-8
   0.2124E-8
   0.4845E-8
   0.5188E-8
   0.2527E-8
   0.9177E-8
   0.1793E-8
   0.9402E-8
   0.1736E-8
   0.5230E-8
   0.4517E-8
   0.2881E-8
   0.9287E-8
   0.1601E-8
   0.9223E-8
   0.1557E-8
   0.5384E-8
   0.3938E-8
   0.3132E-8
   0.9488E-8
   0.1354E-8
   0.9248E-8
   0.1640E-8
   0.5120E-8
   0.3815E-8
   0.2987E-8
   0.9330E-8
   0.1294E-8
   0.9097E-8
   0.1766E-8
   0.4773E-8
   0.4025E-8
   0.2633E-8
   0.8772E-8
   0.1465E-8
   0.8600E-8
   0.1659E-8
   0.4721E-8
   0.4136E-8
   0.2472E-8
   0.8206E-8
   0.1674E-8
   0.8030E-8
   0.1342E-8
   0.4929E-8
   0.3887E-8
   0.2652E-8
   0.7943E-8
   0.5196E-8
   0.4426E-9
   0.4463E-8
   0.9535E-8
   0.7311E-8
   0.4941E-8
   0.402E-10
   0.5588E-8
   0.4284E-9
   0.4444E-8
   0.9540E-8
   0.8133E-8
   0.5338E-8
   0.876E-10
   0.6260E-8
   0.4585E-9
   0.4924E-8
   0.9968E-8
   0.8477E-8
   0.5242E-8
   0.1340E-9
   0.6588E-8
   0.4477E-9
   0.5521E-8
   0.1033E-7
   0.8351E-8
   0.4838E-8
   0.1423E-9
   0.6276E-8
   0.3512E-9
   0.5648E-8
   0.1006E-7
   0.8320E-8
   0.4668E-8
   0.1414E-9
   0.5777E-8
   0.2408E-9
   0.5248E-8
   0.9290E-8
   0.8780E-8
   0.4988E-8
   0.1826E-9
   0.5703E-8
   0.1957E-9
   0.4869E-8
   0.8674E-8
   0.9493E-8
   0.5500E-8
   0.2792E-9
   0.6143E-8
   0.2203E-9
   0.4957E-8
   0.8652E-8
   0.9829E-8
   0.5633E-8
   0.3680E-9
   0.6582E-8
   0.2573E-9
   0.5385E-8
   0.8984E-8
   0.9557E-8
   0.5238E-8
   0.3668E-9
   0.6455E-8
   0.2281E-9
   0.5597E-8
   0.9021E-8
   0.9172E-8
   0.4798E-8
   0.3085E-9
   0.5879E-8
   0.1423E-9
   0.5254E-8
   0.8458E-8
   0.9289E-8
   0.4791E-8
   0.2932E-9
   0.5491E-8
   0.779E-10
   0.4695E-8
   0.7708E-8
   0.9938E-8
   0.5163E-8
   0.3679E-9
   0.5654E-8
   0.595E-10
   0.4469E-8
   0.7331E-8
   0.1052E-7
   0.5379E-8
   0.4948E-9
   0.6088E-8
   0.630E-10
   0.4707E-8
   0.7376E-8
   0.1044E-7
   0.5026E-8
   0.5656E-9
   0.6154E-8
   0.529E-10
   0.5024E-8
   0.7361E-8
   0.9846E-8
   0.4374E-8
   0.5355E-9
   0.5613E-8
   0.234E-10
   0.4924E-8
   0.6853E-8
   0.9382E-8
   0.4002E-8
   0.4867E-9
   0.4933E-8
   0.507E-11
   0.4412E-8
   0.6041E-8
   0.9403E-8
   0.4121E-8
   0.4995E-9
   0.1741E-7
   0.1536E-8
   0.3719E-8
   0.1169E-7
   0.8998E-8
   0.3712E-8
   0.2069E-9
   0.1818E-7
   0.1435E-8
   0.3763E-8
   0.1170E-7
   0.9868E-8
   0.4107E-8
   0.3550E-9
   0.1943E-7
   0.1490E-8
   0.4222E-8
   0.1226E-7
   0.1011E-7
   0.4128E-8
   0.4836E-9
   0.2022E-7
   0.1509E-8
   0.4721E-8
   0.1281E-7
   0.9974E-8
   0.3918E-8
   0.5267E-9
   0.2003E-7
   0.1321E-8
   0.4706E-8
   0.1260E-7
   0.1018E-7
   0.3912E-8
   0.5509E-9
   0.1944E-7
   0.1007E-8
   0.4177E-8
   0.1169E-7
   0.1106E-7
   0.4284E-8
   0.6564E-9
   0.1940E-7
   0.7766E-9
   0.3719E-8
   0.1091E-7
   0.1213E-7
   0.4710E-8
   0.8509E-9
   0.2009E-7
   0.7020E-9
   0.3778E-8
   0.1090E-7
   0.1250E-7
   0.4674E-8
   0.1021E-8
   0.2072E-7
   0.6966E-9
   0.4260E-8
   0.1139E-7
   0.1199E-7
   0.4156E-8
   0.1070E-8
   0.2045E-7
   0.6282E-9
   0.4614E-8
   0.1151E-7
   0.1138E-7
   0.3708E-8
   0.1077E-8
   0.1946E-7
   0.4752E-9
   0.4404E-8
   0.1073E-7
   0.1148E-7
   0.3771E-8
   0.1201E-8
   0.1870E-7
   0.3387E-9
   0.3864E-8
   0.9529E-8
   0.1223E-7
   0.4259E-8
   0.1493E-8
   0.1873E-7
   0.2813E-9
   0.3524E-8
   0.8753E-8
   0.1283E-7
   0.4611E-8
   0.1798E-8
   0.1908E-7
   0.2699E-9
   0.3562E-8
   0.8633E-8
   0.1256E-7
   0.4365E-8
   0.1890E-8
   0.1881E-7
   0.2286E-9
   0.3695E-8
   0.8665E-8
   0.1171E-7
   0.3755E-8
   0.1778E-8
   0.1765E-7
   0.1371E-9
   0.3531E-8
   0.8215E-8
   0.1108E-7
   0.3353E-8
   0.1699E-8
   0.1634E-7
   0.608E-10
   0.3075E-8
   0.7286E-8
   0.1103E-7
   0.3377E-8
   0.1814E-8
   0.2362E-8
   0.1640E-7
   0.9227E-8
   0.6951E-8
   0.7027E-8
   0.3534E-8
   0.2048E-7
   0.2542E-8
   0.1702E-7
   0.9012E-8
   0.6881E-8
   0.7569E-8
   0.3695E-8
   0.1983E-7
   0.2883E-8
   0.1700E-7
   0.8133E-8
   0.7240E-8
   0.7550E-8
   0.4210E-8
   0.1966E-7