
     Program PWSCF v.5.3.0 (svn rev. 11974) starts on  2Mar2016 at  9:31:10 

     This program is part of the open-source Quantum ESPRESSO suite
     for quantum simulation of materials; please cite
         "P. Giannozzi et al., J. Phys.:Condens. Matter 21 395502 (2009);
          URL http://www.quantum-espresso.org", 
     in publications or presentations arising from this work. More details at
     http://www.quantum-espresso.org/quote

     Parallel version (MPI & OpenMP), running on       4 processor cores
     Number of MPI processes:                 4
     Threads/MPI process:                     1
     R & G space division:  proc/nbgrp/npool/nimage =       4
     Waiting for input...
     Reading input from standard input

     Current dimensions of program PWSCF are:
     Max number of different atomic species (ntypx) = 10
     Max number of k-points (npk) =  40000
     Max angular momentum in pseudopotentials (lmaxx) =  3

     Atomic positions and unit cell read from directory:
     ./tmp_b/hbn.save/


     Subspace diagonalization in iterative solution of the eigenvalue problem:
     a serial algorithm will be used


     Parallelization info
     --------------------
     sticks:   dense  smooth     PW     G-vecs:    dense   smooth      PW
     Min          63      63     21                 2005     2005     385
     Max          64      64     22                 2010     2010     392
     Sum         253     253     85                 8029     8029    1553



     bravais-lattice index     =            4
     lattice parameter (alat)  =       4.7160  a.u.
     unit-cell volume          =     234.5353 (a.u.)^3
     number of atoms/cell      =            4
     number of atomic types    =            2
     number of electrons       =        16.00
     number of Kohn-Sham states=           30
     kinetic-energy cutoff     =      40.0000  Ry
     charge density cutoff     =     160.0000  Ry
     Exchange-correlation      =  SLA  PZ   NOGX NOGC ( 1  1  0  0 0 0)

     celldm(1)=   4.716000  celldm(2)=   0.000000  celldm(3)=   2.582000
     celldm(4)=   0.000000  celldm(5)=   0.000000  celldm(6)=   0.000000

     crystal axes: (cart. coord. in units of alat)
               a(1) = (   1.000000   0.000000   0.000000 )  
               a(2) = (  -0.500000   0.866025   0.000000 )  
               a(3) = (   0.000000   0.000000   2.582000 )  

     reciprocal axes: (cart. coord. in units 2 pi/alat)
               b(1) = (  1.000000  0.577350 -0.000000 )  
               b(2) = (  0.000000  1.154701  0.000000 )  
               b(3) = (  0.000000 -0.000000  0.387297 )  


     PseudoPot. # 1 for B  read from file:
     ./Pseudos/B.pz-vbc.UPF
     MD5 check sum: b59596b5d63edeea6a2b3a0beace49c5
     Pseudo is Norm-conserving, Zval =  3.0
     Generated by new atomic code, or converted to UPF format
     Using radial grid of  157 points,  1 beta functions with: 
                l(1) =   0

     PseudoPot. # 2 for N  read from file:
     ./Pseudos/N.pz-vbc.UPF
     MD5 check sum: f7a51f6f78412844d17f6e69b370b417
     Pseudo is Norm-conserving, Zval =  5.0
     Generated by new atomic code, or converted to UPF format
     Using radial grid of  161 points,  1 beta functions with: 
                l(1) =   0

     atomic species   valence    mass     pseudopotential
        B              3.00    10.00000     B ( 1.00)
        N              5.00    14.00000     N ( 1.00)

     12 Sym. Ops. (no inversion) found


                                    s                        frac. trans.

      isym =  1     identity                                     

 cryst.   s( 1) = (     1          0          0      )
                  (     0          1          0      )
                  (     0          0          1      )

 cart.    s( 1) = (  1.0000000  0.0000000  0.0000000 )
                  (  0.0000000  1.0000000  0.0000000 )
                  (  0.0000000  0.0000000  1.0000000 )


      isym =  2     180 deg rotation - cart. axis [0,1,0]        

 cryst.   s( 2) = (    -1          0          0      )
                  (     1          1          0      )
                  (     0          0         -1      )

 cart.    s( 2) = ( -1.0000000  0.0000000  0.0000000 )
                  (  0.0000000  1.0000000  0.0000000 )
                  (  0.0000000  0.0000000 -1.0000000 )


      isym =  3     120 deg rotation - cryst. axis [0,0,1]       

 cryst.   s( 3) = (     0          1          0      )
                  (    -1         -1          0      )
                  (     0          0          1      )

 cart.    s( 3) = ( -0.5000000 -0.8660254  0.0000000 )
                  (  0.8660254 -0.5000000  0.0000000 )
                  (  0.0000000  0.0000000  1.0000000 )


      isym =  4     120 deg rotation - cryst. axis [0,0,-1]      

 cryst.   s( 4) = (    -1         -1          0      )
                  (     1          0          0      )
                  (     0          0          1      )

 cart.    s( 4) = ( -0.5000000  0.8660254  0.0000000 )
                  ( -0.8660254 -0.5000000  0.0000000 )
                  (  0.0000000  0.0000000  1.0000000 )


      isym =  5     180 deg rotation - cryst. axis [1,-1,0]      

 cryst.   s( 5) = (     0         -1          0      )
                  (    -1          0          0      )
                  (     0          0         -1      )

 cart.    s( 5) = (  0.5000000 -0.8660254  0.0000000 )
                  ( -0.8660254 -0.5000000  0.0000000 )
                  (  0.0000000  0.0000000 -1.0000000 )


      isym =  6     180 deg rotation - cryst. axis [2,1,0]       

 cryst.   s( 6) = (     1          1          0      )
                  (     0         -1          0      )
                  (     0          0         -1      )

 cart.    s( 6) = (  0.5000000  0.8660254  0.0000000 )
                  (  0.8660254 -0.5000000  0.0000000 )
                  (  0.0000000  0.0000000 -1.0000000 )


      isym =  7     inv. 180 deg rotation - cart. axis [0,0,1]   

 cryst.   s( 7) = (     1          0          0      )
                  (     0          1          0      )
                  (     0          0         -1      )

 cart.    s( 7) = (  1.0000000  0.0000000  0.0000000 )
                  (  0.0000000  1.0000000  0.0000000 )
                  (  0.0000000  0.0000000 -1.0000000 )


      isym =  8     inv. 180 deg rotation - cart. axis [1,0,0]   

 cryst.   s( 8) = (    -1          0          0      )
                  (     1          1          0      )
                  (     0          0          1      )

 cart.    s( 8) = ( -1.0000000  0.0000000  0.0000000 )
                  (  0.0000000  1.0000000  0.0000000 )
                  (  0.0000000  0.0000000  1.0000000 )


      isym =  9     inv.  60 deg rotation - cryst. axis [0,0,1]  

 cryst.   s( 9) = (    -1         -1          0      )
                  (     1          0          0      )
                  (     0          0         -1      )

 cart.    s( 9) = ( -0.5000000  0.8660254  0.0000000 )
                  ( -0.8660254 -0.5000000  0.0000000 )
                  (  0.0000000  0.0000000 -1.0000000 )


      isym = 10     inv.  60 deg rotation - cryst. axis [0,0,-1] 

 cryst.   s(10) = (     0          1          0      )
                  (    -1         -1          0      )
                  (     0          0         -1      )

 cart.    s(10) = ( -0.5000000 -0.8660254  0.0000000 )
                  (  0.8660254 -0.5000000  0.0000000 )
                  (  0.0000000  0.0000000 -1.0000000 )


      isym = 11     inv. 180 deg rotation - cryst. axis [0,1,0]  

 cryst.   s(11) = (     1          1          0      )
                  (     0         -1          0      )
                  (     0          0          1      )

 cart.    s(11) = (  0.5000000  0.8660254  0.0000000 )
                  (  0.8660254 -0.5000000  0.0000000 )
                  (  0.0000000  0.0000000  1.0000000 )


      isym = 12     inv. 180 deg rotation - cryst. axis [1,1,0]  

 cryst.   s(12) = (     0         -1          0      )
                  (    -1          0          0      )
                  (     0          0          1      )

 cart.    s(12) = (  0.5000000 -0.8660254  0.0000000 )
                  ( -0.8660254 -0.5000000  0.0000000 )
                  (  0.0000000  0.0000000  1.0000000 )


     point group D_3h (-62m)
     there are  6 classes
     the character table:

       E     2C3   3C2   s_h   2S3   3s_v 
A'_1   1.00  1.00  1.00  1.00  1.00  1.00
A'_2   1.00  1.00 -1.00  1.00  1.00 -1.00
E'     2.00 -1.00  0.00  2.00 -1.00  0.00
A''1   1.00  1.00  1.00 -1.00 -1.00 -1.00
A''2   1.00  1.00 -1.00 -1.00 -1.00  1.00
E''    2.00 -1.00  0.00 -2.00  1.00  0.00

     the symmetry operations in each class and the name of the first element:

     E        1
          identity                                               
     2C3      3    4
          120 deg rotation - cryst. axis [0,0,1]                 
     3C2      2    6    5
          180 deg rotation - cart. axis [0,1,0]                  
     s_h      7
          inv. 180 deg rotation - cart. axis [0,0,1]             
     2S3      9   10
          inv.  60 deg rotation - cryst. axis [0,0,1]            
     3s_v     8   11   12
          inv. 180 deg rotation - cart. axis [1,0,0]             

   Cartesian axes

     site n.     atom                  positions (alat units)
         1           B   tau(   1) = (   0.5000001   0.2886751   0.0000000  )
         2           N   tau(   2) = (  -0.5000001  -0.2886751   0.0000000  )
         3           B   tau(   3) = (  -0.5000001  -0.2886751   1.2910000  )
         4           N   tau(   4) = (   0.5000001   0.2886751   1.2910000  )

   Crystallographic axes

     site n.     atom                  positions (cryst. coord.)
         1           B   tau(   1) = (  0.6666667  0.3333333  0.0000000  )
         2           N   tau(   2) = ( -0.6666667 -0.3333333  0.0000000  )
         3           B   tau(   3) = ( -0.6666667 -0.3333333  0.5000000  )
         4           N   tau(   4) = (  0.6666667  0.3333333  0.5000000  )

     number of k points=    81
                       cart. coord. in units 2pi/alat
        k(    1) = (   0.3330000  -0.5775466   0.0000000), wk =   0.0246914
        k(    2) = (   0.3108000  -0.5390435   0.0000000), wk =   0.0246914
        k(    3) = (   0.2886000  -0.5005404   0.0000000), wk =   0.0246914
        k(    4) = (   0.2664000  -0.4620373   0.0000000), wk =   0.0246914
        k(    5) = (   0.2442000  -0.4235342   0.0000000), wk =   0.0246914
        k(    6) = (   0.2220000  -0.3850310   0.0000000), wk =   0.0246914
        k(    7) = (   0.1998000  -0.3465279   0.0000000), wk =   0.0246914
        k(    8) = (   0.1776000  -0.3080248   0.0000000), wk =   0.0246914
        k(    9) = (   0.1554000  -0.2695217   0.0000000), wk =   0.0246914
        k(   10) = (   0.1332000  -0.2310186   0.0000000), wk =   0.0246914
        k(   11) = (   0.1110000  -0.1925155   0.0000000), wk =   0.0246914
        k(   12) = (   0.0888000  -0.1540124   0.0000000), wk =   0.0246914
        k(   13) = (   0.0666000  -0.1155093   0.0000000), wk =   0.0246914
        k(   14) = (   0.0444000  -0.0770062   0.0000000), wk =   0.0246914
        k(   15) = (   0.0222000  -0.0385031   0.0000000), wk =   0.0246914
        k(   16) = (   0.0000000   0.0000000   0.0000000), wk =   0.0246914
        k(   17) = (   0.0333333  -0.0192450   0.0000000), wk =   0.0246914
        k(   18) = (   0.0666667  -0.0384900   0.0000000), wk =   0.0246914
        k(   19) = (   0.1000000  -0.0577350   0.0000000), wk =   0.0246914
        k(   20) = (   0.1333333  -0.0769800   0.0000000), wk =   0.0246914
        k(   21) = (   0.1666667  -0.0962250   0.0000000), wk =   0.0246914
        k(   22) = (   0.2000000  -0.1154701   0.0000000), wk =   0.0246914
        k(   23) = (   0.2333333  -0.1347151   0.0000000), wk =   0.0246914
        k(   24) = (   0.2666667  -0.1539601   0.0000000), wk =   0.0246914
        k(   25) = (   0.3000000  -0.1732051   0.0000000), wk =   0.0246914
        k(   26) = (   0.3333333  -0.1924501   0.0000000), wk =   0.0246914
        k(   27) = (   0.3666667  -0.2116951   0.0000000), wk =   0.0246914
        k(   28) = (   0.4000000  -0.2309401   0.0000000), wk =   0.0246914
        k(   29) = (   0.4333333  -0.2501851   0.0000000), wk =   0.0246914
        k(   30) = (   0.4666667  -0.2694301   0.0000000), wk =   0.0246914
        k(   31) = (   0.5000000  -0.2886751   0.0000000), wk =   0.0246914
        k(   32) = (   0.4888667  -0.3079332   0.0000000), wk =   0.0246914
        k(   33) = (   0.4777333  -0.3271913   0.0000000), wk =   0.0246914
        k(   34) = (   0.4666000  -0.3464494   0.0000000), wk =   0.0246914
        k(   35) = (   0.4554667  -0.3657075   0.0000000), wk =   0.0246914
        k(   36) = (   0.4443333  -0.3849656   0.0000000), wk =   0.0246914
        k(   37) = (   0.4332000  -0.4042237   0.0000000), wk =   0.0246914
        k(   38) = (   0.4220667  -0.4234818   0.0000000), wk =   0.0246914
        k(   39) = (   0.4109333  -0.4427399   0.0000000), wk =   0.0246914
        k(   40) = (   0.3998000  -0.4619980   0.0000000), wk =   0.0246914
        k(   41) = (   0.3886667  -0.4812561   0.0000000), wk =   0.0246914
        k(   42) = (   0.3775333  -0.5005142   0.0000000), wk =   0.0246914
        k(   43) = (   0.3664000  -0.5197723   0.0000000), wk =   0.0246914
        k(   44) = (   0.3552667  -0.5390304   0.0000000), wk =   0.0246914
        k(   45) = (   0.3441333  -0.5582885   0.0000000), wk =   0.0246914
        k(   46) = (   0.3330000  -0.5775466   0.0000000), wk =   0.0246914
        k(   47) = (   0.3330000  -0.5775466   0.0387297), wk =   0.0246914
        k(   48) = (   0.3330000  -0.5775466   0.0774593), wk =   0.0246914
        k(   49) = (   0.3330000  -0.5775466   0.1161890), wk =   0.0246914
        k(   50) = (   0.3330000  -0.5775466   0.1549187), wk =   0.0246914
        k(   51) = (   0.3330000  -0.5775466   0.1936483), wk =   0.0246914
        k(   52) = (   0.3108000  -0.5390435   0.1936483), wk =   0.0246914
        k(   53) = (   0.2886000  -0.5005404   0.1936483), wk =   0.0246914
        k(   54) = (   0.2664000  -0.4620373   0.1936483), wk =   0.0246914
        k(   55) = (   0.2442000  -0.4235342   0.1936483), wk =   0.0246914
        k(   56) = (   0.2220000  -0.3850310   0.1936483), wk =   0.0246914
        k(   57) = (   0.1998000  -0.3465279   0.1936483), wk =   0.0246914
        k(   58) = (   0.1776000  -0.3080248   0.1936483), wk =   0.0246914
        k(   59) = (   0.1554000  -0.2695217   0.1936483), wk =   0.0246914
        k(   60) = (   0.1332000  -0.2310186   0.1936483), wk =   0.0246914
        k(   61) = (   0.1110000  -0.1925155   0.1936483), wk =   0.0246914
        k(   62) = (   0.0888000  -0.1540124   0.1936483), wk =   0.0246914
        k(   63) = (   0.0666000  -0.1155093   0.1936483), wk =   0.0246914
        k(   64) = (   0.0444000  -0.0770062   0.1936483), wk =   0.0246914
        k(   65) = (   0.0222000  -0.0385031   0.1936483), wk =   0.0246914
        k(   66) = (   0.0000000   0.0000000   0.1936483), wk =   0.0246914
        k(   67) = (   0.0333333  -0.0192450   0.1936483), wk =   0.0246914
        k(   68) = (   0.0666667  -0.0384900   0.1936483), wk =   0.0246914
        k(   69) = (   0.1000000  -0.0577350   0.1936483), wk =   0.0246914
        k(   70) = (   0.1333333  -0.0769800   0.1936483), wk =   0.0246914
        k(   71) = (   0.1666667  -0.0962250   0.1936483), wk =   0.0246914
        k(   72) = (   0.2000000  -0.1154701   0.1936483), wk =   0.0246914
        k(   73) = (   0.2333333  -0.1347151   0.1936483), wk =   0.0246914
        k(   74) = (   0.2666667  -0.1539601   0.1936483), wk =   0.0246914
        k(   75) = (   0.3000000  -0.1732051   0.1936483), wk =   0.0246914
        k(   76) = (   0.3333333  -0.1924501   0.1936483), wk =   0.0246914
        k(   77) = (   0.3666667  -0.2116951   0.1936483), wk =   0.0246914
        k(   78) = (   0.4000000  -0.2309401   0.1936483), wk =   0.0246914
        k(   79) = (   0.4333333  -0.2501851   0.1936483), wk =   0.0246914
        k(   80) = (   0.4666667  -0.2694301   0.1936483), wk =   0.0246914
        k(   81) = (   0.5000000  -0.2886751   0.1936483), wk =   0.0246914

                       cryst. coord.
        k(    1) = (   0.3330000  -0.6666700   0.0000000), wk =   0.0246914
        k(    2) = (   0.3108000  -0.6222253   0.0000000), wk =   0.0246914
        k(    3) = (   0.2886000  -0.5777807   0.0000000), wk =   0.0246914
        k(    4) = (   0.2664000  -0.5333360   0.0000000), wk =   0.0246914
        k(    5) = (   0.2442000  -0.4888913   0.0000000), wk =   0.0246914
        k(    6) = (   0.2220000  -0.4444467   0.0000000), wk =   0.0246914
        k(    7) = (   0.1998000  -0.4000020   0.0000000), wk =   0.0246914
        k(    8) = (   0.1776000  -0.3555573   0.0000000), wk =   0.0246914
        k(    9) = (   0.1554000  -0.3111127   0.0000000), wk =   0.0246914
        k(   10) = (   0.1332000  -0.2666680   0.0000000), wk =   0.0246914
        k(   11) = (   0.1110000  -0.2222233   0.0000000), wk =   0.0246914
        k(   12) = (   0.0888000  -0.1777787   0.0000000), wk =   0.0246914
        k(   13) = (   0.0666000  -0.1333340   0.0000000), wk =   0.0246914
        k(   14) = (   0.0444000  -0.0888893   0.0000000), wk =   0.0246914
        k(   15) = (   0.0222000  -0.0444447   0.0000000), wk =   0.0246914
        k(   16) = (   0.0000000   0.0000000   0.0000000), wk =   0.0246914
        k(   17) = (   0.0333333  -0.0333333   0.0000000), wk =   0.0246914
        k(   18) = (   0.0666667  -0.0666667   0.0000000), wk =   0.0246914
        k(   19) = (   0.1000000  -0.1000000   0.0000000), wk =   0.0246914
        k(   20) = (   0.1333333  -0.1333333   0.0000000), wk =   0.0246914
        k(   21) = (   0.1666667  -0.1666667   0.0000000), wk =   0.0246914
        k(   22) = (   0.2000000  -0.2000000   0.0000000), wk =   0.0246914
        k(   23) = (   0.2333333  -0.2333333   0.0000000), wk =   0.0246914
        k(   24) = (   0.2666667  -0.2666667   0.0000000), wk =   0.0246914
        k(   25) = (   0.3000000  -0.3000000   0.0000000), wk =   0.0246914
        k(   26) = (   0.3333333  -0.3333333   0.0000000), wk =   0.0246914
        k(   27) = (   0.3666667  -0.3666667   0.0000000), wk =   0.0246914
        k(   28) = (   0.4000000  -0.4000000   0.0000000), wk =   0.0246914
        k(   29) = (   0.4333333  -0.4333333   0.0000000), wk =   0.0246914
        k(   30) = (   0.4666667  -0.4666667   0.0000000), wk =   0.0246914
        k(   31) = (   0.5000000  -0.5000000   0.0000000), wk =   0.0246914
        k(   32) = (   0.4888667  -0.5111113   0.0000000), wk =   0.0246914
        k(   33) = (   0.4777333  -0.5222227   0.0000000), wk =   0.0246914
        k(   34) = (   0.4666000  -0.5333340   0.0000000), wk =   0.0246914
        k(   35) = (   0.4554667  -0.5444453   0.0000000), wk =   0.0246914
        k(   36) = (   0.4443333  -0.5555567   0.0000000), wk =   0.0246914
        k(   37) = (   0.4332000  -0.5666680   0.0000000), wk =   0.0246914
        k(   38) = (   0.4220667  -0.5777793   0.0000000), wk =   0.0246914
        k(   39) = (   0.4109333  -0.5888907   0.0000000), wk =   0.0246914
        k(   40) = (   0.3998000  -0.6000020   0.0000000), wk =   0.0246914
        k(   41) = (   0.3886667  -0.6111133   0.0000000), wk =   0.0246914
        k(   42) = (   0.3775333  -0.6222247   0.0000000), wk =   0.0246914
        k(   43) = (   0.3664000  -0.6333360   0.0000000), wk =   0.0246914
        k(   44) = (   0.3552667  -0.6444473   0.0000000), wk =   0.0246914
        k(   45) = (   0.3441333  -0.6555587   0.0000000), wk =   0.0246914
        k(   46) = (   0.3330000  -0.6666700   0.0000000), wk =   0.0246914
        k(   47) = (   0.3330000  -0.6666700   0.1000000), wk =   0.0246914
        k(   48) = (   0.3330000  -0.6666700   0.2000000), wk =   0.0246914
        k(   49) = (   0.3330000  -0.6666700   0.3000000), wk =   0.0246914
        k(   50) = (   0.3330000  -0.6666700   0.4000000), wk =   0.0246914
        k(   51) = (   0.3330000  -0.6666700   0.5000000), wk =   0.0246914
        k(   52) = (   0.3108000  -0.6222253   0.5000000), wk =   0.0246914
        k(   53) = (   0.2886000  -0.5777807   0.5000000), wk =   0.0246914
        k(   54) = (   0.2664000  -0.5333360   0.5000000), wk =   0.0246914
        k(   55) = (   0.2442000  -0.4888913   0.5000000), wk =   0.0246914
        k(   56) = (   0.2220000  -0.4444467   0.5000000), wk =   0.0246914
        k(   57) = (   0.1998000  -0.4000020   0.5000000), wk =   0.0246914
        k(   58) = (   0.1776000  -0.3555573   0.5000000), wk =   0.0246914
        k(   59) = (   0.1554000  -0.3111127   0.5000000), wk =   0.0246914
        k(   60) = (   0.1332000  -0.2666680   0.5000000), wk =   0.0246914
        k(   61) = (   0.1110000  -0.2222233   0.5000000), wk =   0.0246914
        k(   62) = (   0.0888000  -0.1777787   0.5000000), wk =   0.0246914
        k(   63) = (   0.0666000  -0.1333340   0.5000000), wk =   0.0246914
        k(   64) = (   0.0444000  -0.0888893   0.5000000), wk =   0.0246914
        k(   65) = (   0.0222000  -0.0444447   0.5000000), wk =   0.0246914
        k(   66) = (   0.0000000   0.0000000   0.5000000), wk =   0.0246914
        k(   67) = (   0.0333333  -0.0333333   0.5000000), wk =   0.0246914
        k(   68) = (   0.0666667  -0.0666667   0.5000000), wk =   0.0246914
        k(   69) = (   0.1000000  -0.1000000   0.5000000), wk =   0.0246914
        k(   70) = (   0.1333333  -0.1333333   0.5000000), wk =   0.0246914
        k(   71) = (   0.1666667  -0.1666667   0.5000000), wk =   0.0246914
        k(   72) = (   0.2000000  -0.2000000   0.5000000), wk =   0.0246914
        k(   73) = (   0.2333333  -0.2333333   0.5000000), wk =   0.0246914
        k(   74) = (   0.2666667  -0.2666667   0.5000000), wk =   0.0246914
        k(   75) = (   0.3000000  -0.3000000   0.5000000), wk =   0.0246914
        k(   76) = (   0.3333333  -0.3333333   0.5000000), wk =   0.0246914
        k(   77) = (   0.3666667  -0.3666667   0.5000000), wk =   0.0246914
        k(   78) = (   0.4000000  -0.4000000   0.5000000), wk =   0.0246914
        k(   79) = (   0.4333333  -0.4333333   0.5000000), wk =   0.0246914
        k(   80) = (   0.4666667  -0.4666667   0.5000000), wk =   0.0246914
        k(   81) = (   0.5000000  -0.5000000   0.5000000), wk =   0.0246914

     Dense  grid:     8029 G-vectors     FFT dimensions: (  20,  20,  50)

     Largest allocated arrays     est. size (Mb)     dimensions
        Kohn-Sham Wavefunctions         0.12 Mb     (     258,   30)
        NL pseudopotentials             0.02 Mb     (     258,    4)
        Each V/rho on FFT grid          0.08 Mb     (    5200)
        Each G-vector array             0.02 Mb     (    2010)
        G-vector shells                 0.00 Mb     (     445)
     Largest temporary arrays     est. size (Mb)     dimensions
        Auxiliary wavefunctions         0.47 Mb     (     258,  120)
        Each subspace H/S matrix        0.22 Mb     (     120,  120)
        Each <psi_i|beta_j> matrix      0.00 Mb     (       4,   30)

     The potential is recalculated from file :
     ./tmp_b/hbn.save/charge-density.dat

     Starting wfc are   16 randomized atomic wfcs +   14 random wfc

     Band Structure Calculation
     Davidson diagonalization with overlap

     Computing kpt #:     1
     total cpu time spent up to now is        0.4 secs

     Computing kpt #:     2
     total cpu time spent up to now is        0.6 secs

     Computing kpt #:     3
     total cpu time spent up to now is        0.7 secs

     Computing kpt #:     4
     total cpu time spent up to now is        0.9 secs

     Computing kpt #:     5
     total cpu time spent up to now is        1.1 secs

     Computing kpt #:     6
     total cpu time spent up to now is        1.3 secs

     Computing kpt #:     7
     total cpu time spent up to now is        1.5 secs

     Computing kpt #:     8
     total cpu time spent up to now is        1.6 secs

     Computing kpt #:     9
     total cpu time spent up to now is        1.8 secs

     Computing kpt #:    10
     total cpu time spent up to now is        2.0 secs

     Computing kpt #:    11
     total cpu time spent up to now is        2.1 secs

     Computing kpt #:    12
     total cpu time spent up to now is        2.3 secs

     Computing kpt #:    13
     total cpu time spent up to now is        2.5 secs

     Computing kpt #:    14
     total cpu time spent up to now is        2.6 secs

     Computing kpt #:    15
     total cpu time spent up to now is        2.8 secs

     Computing kpt #:    16
     total cpu time spent up to now is        3.0 secs

     Computing kpt #:    17
     total cpu time spent up to now is        3.1 secs

     Computing kpt #:    18
     total cpu time spent up to now is        3.3 secs

     Computing kpt #:    19
     total cpu time spent up to now is        3.5 secs

     Computing kpt #:    20
     total cpu time spent up to now is        3.6 secs

     Computing kpt #:    21
     total cpu time spent up to now is        3.8 secs

     Computing kpt #:    22
     total cpu time spent up to now is        4.0 secs

     Computing kpt #:    23
     total cpu time spent up to now is        4.1 secs

     Computing kpt #:    24
     total cpu time spent up to now is        4.3 secs

     Computing kpt #:    25
     total cpu time spent up to now is        4.4 secs

     Computing kpt #:    26
     total cpu time spent up to now is        4.6 secs

     Computing kpt #:    27
     total cpu time spent up to now is        4.8 secs

     Computing kpt #:    28
     total cpu time spent up to now is        5.0 secs

     Computing kpt #:    29
     total cpu time spent up to now is        5.1 secs

     Computing kpt #:    30
     total cpu time spent up to now is        5.3 secs

     Computing kpt #:    31
     total cpu time spent up to now is        5.5 secs

     Computing kpt #:    32
     total cpu time spent up to now is        5.6 secs

     Computing kpt #:    33
     total cpu time spent up to now is        5.8 secs

     Computing kpt #:    34
     total cpu time spent up to now is        6.0 secs

     Computing kpt #:    35
     total cpu time spent up to now is        6.1 secs

     Computing kpt #:    36
     total cpu time spent up to now is        6.3 secs

     Computing kpt #:    37
     total cpu time spent up to now is        6.5 secs

     Computing kpt #:    38
     total cpu time spent up to now is        6.7 secs

     Computing kpt #:    39
     total cpu time spent up to now is        6.8 secs

     Computing kpt #:    40
     total cpu time spent up to now is        7.0 secs

     Computing kpt #:    41
     total cpu time spent up to now is        7.2 secs

     Computing kpt #:    42
     total cpu time spent up to now is        7.4 secs

     Computing kpt #:    43
     total cpu time spent up to now is        7.5 secs

     Computing kpt #:    44
     total cpu time spent up to now is        7.7 secs

     Computing kpt #:    45
     total cpu time spent up to now is        7.9 secs

     Computing kpt #:    46
     total cpu time spent up to now is        8.1 secs

     Computing kpt #:    47
     total cpu time spent up to now is        8.3 secs

     Computing kpt #:    48
     total cpu time spent up to now is        8.4 secs

     Computing kpt #:    49
     total cpu time spent up to now is        8.6 secs

     Computing kpt #:    50
     total cpu time spent up to now is        8.8 secs

     Computing kpt #:    51
     total cpu time spent up to now is        8.9 secs

     Computing kpt #:    52
     total cpu time spent up to now is        9.1 secs

     Computing kpt #:    53
     total cpu time spent up to now is        9.2 secs

     Computing kpt #:    54
     total cpu time spent up to now is        9.4 secs

     Computing kpt #:    55
     total cpu time spent up to now is        9.6 secs

     Computing kpt #:    56
     total cpu time spent up to now is        9.7 secs

     Computing kpt #:    57
     total cpu time spent up to now is        9.9 secs

     Computing kpt #:    58
     total cpu time spent up to now is       10.1 secs

     Computing kpt #:    59
     total cpu time spent up to now is       10.3 secs

     Computing kpt #:    60
     total cpu time spent up to now is       10.4 secs

     Computing kpt #:    61
     total cpu time spent up to now is       10.6 secs

     Computing kpt #:    62
     total cpu time spent up to now is       10.8 secs

     Computing kpt #:    63
     total cpu time spent up to now is       11.0 secs

     Computing kpt #:    64
     total cpu time spent up to now is       11.1 secs

     Computing kpt #:    65
     total cpu time spent up to now is       11.3 secs

     Computing kpt #:    66
     total cpu time spent up to now is       11.5 secs

     Computing kpt #:    67
     total cpu time spent up to now is       11.6 secs

     Computing kpt #:    68
     total cpu time spent up to now is       11.8 secs

     Computing kpt #:    69
     total cpu time spent up to now is       12.0 secs

     Computing kpt #:    70
     total cpu time spent up to now is       12.1 secs

     Computing kpt #:    71
     total cpu time spent up to now is       12.3 secs

     Computing kpt #:    72
     total cpu time spent up to now is       12.5 secs

     Computing kpt #:    73
     total cpu time spent up to now is       12.7 secs

     Computing kpt #:    74
     total cpu time spent up to now is       12.9 secs

     Computing kpt #:    75
     total cpu time spent up to now is       13.1 secs

     Computing kpt #:    76
     total cpu time spent up to now is       13.3 secs

     Computing kpt #:    77
     total cpu time spent up to now is       13.4 secs

     Computing kpt #:    78
     total cpu time spent up to now is       13.6 secs

     Computing kpt #:    79
     total cpu time spent up to now is       13.8 secs

     Computing kpt #:    80
     total cpu time spent up to now is       13.9 secs

     Computing kpt #:    81
     total cpu time spent up to now is       14.1 secs

     ethr =  5.00E-06,  avg # of iterations =  9.8

     total cpu time spent up to now is       14.1 secs

     End of band structure calculation

          k = 0.3330-0.5775 0.0000 (  1005 PWs)   bands (ev):

    -9.3721  -9.3718  -3.2130  -2.9417  -2.1086  -2.1085   4.9764   4.9805
     9.7867   9.7899  15.2000  18.2584  18.2648  18.8216  21.8079  23.0957
    23.0987  23.1404  25.0769  25.0776  26.9983  27.0058  27.7227  33.3924
    33.4490  37.7235  37.7312  38.8827  40.3354  41.8075

          k = 0.3108-0.5390 0.0000 (   997 PWs)   bands (ev):

    -9.4363  -9.3978  -3.1995  -2.9955  -1.9578  -1.9433   4.6548   5.1539
     9.6686  10.0198  15.3432  17.6943  18.5914  18.8545  21.9188  22.1887
    22.8337  24.0325  25.1999  25.3207  26.5335  27.4519  28.0103  33.3124
    33.3907  37.2242  38.2430  38.9690  40.5315  41.2226

          k = 0.2886-0.5005 0.0000 (  1003 PWs)   bands (ev):

    -9.6132  -9.5217  -3.1624  -3.0194  -1.6647  -1.6090   4.1674   5.1626
     9.7337  10.3787  15.7338  16.8728  18.8078  18.8157  21.2846  22.2388
    22.3688  24.4603  25.4451  26.0060  26.0082  27.9317  28.6744  33.0808
    33.2167  36.7021  38.8866  39.1767  40.5781  41.0148

          k = 0.2664-0.4620 0.0000 (  1003 PWs)   bands (ev):

    -9.8895  -9.7518  -2.9702  -2.8762  -1.2536  -1.1885   3.5623   4.9648
    10.0342  10.8477  16.0053  16.3115  18.6494  18.9460  20.4344  21.8945
    22.7468  24.7105  25.4835  25.7937  26.6910  28.4179  29.2127  32.9566
    33.0801  36.2652  39.3106  39.6223  39.9455  41.0344

          k = 0.2442-0.4235 0.0000 (  1005 PWs)   bands (ev):

   -10.2438 -10.0615  -2.6208  -2.5836  -0.7848  -0.7141   2.8894   4.6109
    10.5564  11.4139  15.1403  17.0220  18.3765  18.9806  19.6461  21.4514
    23.4201  24.9225  24.9975  26.2448  27.0571  28.8986  29.1238  32.7300
    33.6199  35.9398  38.9986  39.4200  40.4133  40.5042

          k = 0.2220-0.3850 0.0000 (  1011 PWs)   bands (ev):

   -10.6444 -10.4218  -2.1692  -2.1363  -0.2880  -0.2081   2.2141   4.1557
    11.2468  12.0401  14.3121  17.8150  18.0095  18.8639  18.9867  21.0580
    24.2329  24.6253  24.9782  26.6616  27.2012  28.5311  29.3477  32.5662
    34.4841  35.7061  38.4395  38.7787  39.9938  40.5197

          k = 0.1998-0.3465 0.0000 (  1013 PWs)   bands (ev):

   -11.0562 -10.8033  -1.5795  -1.5767   0.2295   0.3094   1.5520   3.6633
    12.0482  12.6959  13.5578  17.6041  18.2693  18.6308  18.8022  20.6957
    24.4206  24.6266  25.1687  26.5759  27.4191  28.3429  29.7418  32.4558
    35.2592  35.4664  37.8651  38.0686  39.3977  40.2897

          k = 0.1776-0.3080 0.0000 (  1009 PWs)   bands (ev):

   -11.4624 -11.1821  -0.9239  -0.9051   0.7769   0.8684   0.9357   3.1750
    12.8585  12.9440  13.3590  17.2226  17.7247  18.6279  19.3944  20.3269
    23.8322  24.4810  25.6633  26.2029  27.8204  28.9061  30.1187  32.4207
    35.0938  35.6392  37.2529  37.4925  38.7824  40.3176

          k = 0.1554-0.2695 0.0000 (  1003 PWs)   bands (ev):

   -11.8423 -11.5403  -0.2143  -0.1660   0.3733   1.3314   1.4288   2.7133
    12.2342  13.8830  14.0150  16.8884  17.2704  18.4227  19.9309  20.0301
    22.7741  24.5241  24.8878  27.3101  28.2648  29.6654  30.4775  32.5165
    34.5448  35.6228  36.6197  37.0918  38.2149  40.5121

          k = 0.1332-0.2310 0.0000 (   989 PWs)   bands (ev):

   -12.1875 -11.8625  -0.1155   0.5625   0.6313   1.8757   1.9707   2.2889
    11.6832  14.5891  14.8393  16.6276  16.9141  18.1940  19.4765  20.5209
    21.6268  23.4225  25.6772  28.4356  28.5934  30.3432  30.8866  32.6864
    34.0922  35.4716  36.0506  36.8174  37.7158  40.7504

          k = 0.1110-0.1925 0.0000 (   993 PWs)   bands (ev):

   -12.4924 -12.1511  -0.5438   1.3233   1.3759   1.9135   2.3798   2.4440
    11.1938  15.0887  15.7646  16.4471  16.6535  17.9160  18.9361  20.4390
    20.9101  22.3712  26.7904  28.7197  29.4878  30.7066  31.4495  32.4530
    34.2983  35.5667  35.5728  36.6780  37.2992  40.7716

          k = 0.0888-0.1540 0.0000 (   989 PWs)   bands (ev):

   -12.7471 -12.3915  -0.8975   1.5976   2.0686   2.1286   2.8508   2.8971
    10.7764  15.4388  16.3604  16.5048  16.6110  17.6317  18.3505  19.3444
    21.2605  21.4796  28.1392  28.6584  30.3630  30.6722  31.8868  32.2905
    35.1806  35.2076  36.1575  36.6736  36.9904  40.1768

          k = 0.0666-0.1155 0.0000 (  1005 PWs)   bands (ev):

   -12.9500 -12.5855  -1.2042   1.3200   2.7424   2.7446   3.2397   3.2732
    10.4333  15.6320  16.3285  16.4490  17.3036  17.3085  17.7222  18.4053
    20.7568  21.5850  28.4696  29.6388  30.3819  31.0901  31.3698  33.3202
    34.9093  36.4301  36.8105  36.8152  37.1344  38.9603

          k = 0.0444-0.0770 0.0000 (  1005 PWs)   bands (ev):

   -13.0957 -12.7238  -1.4128   1.1407   3.2684   3.3022   3.5579   3.5618
    10.1706  15.7671  16.3808  16.4789  16.9453  17.1706  17.7295  17.8632
    20.2227  21.8684  28.2373  30.0669  31.0116  31.1840  31.8387  34.2648
    34.8064  36.8704  37.0696  37.5847  37.8199  38.3103

          k = 0.0222-0.0385 0.0000 (  1009 PWs)   bands (ev):

   -13.1840 -12.8090  -1.5358   1.0309   3.6355   3.6375   3.7357   3.7379
    10.0014  15.8352  16.4362  16.5684  16.6197  16.7978  17.3194  18.2169
    19.8798  22.0598  28.0520  29.8392  30.8099  32.4976  32.5906  34.8122
    35.0728  36.3300  37.2624  37.3572  38.1761  39.2503

          k = 0.0000 0.0000 0.0000 (   997 PWs)   bands (ev):

   -13.2116 -12.8354  -1.5738   0.9990   3.8132   3.8132   3.8165   3.8165
     9.9436  15.8765  16.4738  16.4738  16.6671  16.6671  17.1658  18.3435
    19.7611  22.1375  27.9821  29.7586  30.7459  33.0045  33.0045  34.9339
    35.7940  35.7940  36.7858  37.5056  37.5056  40.2113

          k = 0.0333-0.0192 0.0000 (  1011 PWs)   bands (ev):

   -13.1916 -12.8163  -1.5462   1.0215   3.6650   3.6751   3.7217   3.7540
     9.9865  15.8403  16.4390  16.5726  16.6026  16.7606  17.2819  18.2455
    19.8495  22.0767  28.0349  29.8193  30.7938  32.6275  32.6781  34.7980
    35.2238  36.1899  37.2943  37.4037  37.9296  39.3980

          k = 0.0667-0.0385 0.0000 (  1009 PWs)   bands (ev):

   -13.1254 -12.7525  -1.4539   1.1039   3.3823   3.4074   3.5921   3.6173
    10.1150  15.7902  16.3427  16.5282  16.8713  17.0595  17.5790  17.9777
    20.1090  21.9301  28.1793  29.9936  30.9432  31.6511  31.9908  34.1603
    35.1975  36.7765  37.0898  37.3532  38.0749  38.8558

          k = 0.1000-0.0577 0.0000 (  1007 PWs)   bands (ev):

   -13.0162 -12.6466  -1.2827   1.2382   2.9519   2.9650   3.3693   3.4000
    10.3155  15.7178  16.1784  16.4904  17.3404  17.5397  17.5473  17.9915
    20.5074  21.7078  28.3738  30.2497  30.4638  31.2110  31.2251  33.3889
    35.3486  36.1326  36.7551  37.5830  38.0442  38.2039

          k = 0.1333-0.0770 0.0000 (  1006 PWs)   bands (ev):

   -12.8638 -12.5040  -1.0769   1.4351   2.3714   2.3958   3.1340   3.1457
    10.5754  15.5426  15.9985  16.4426  16.9801  18.0024  18.1715  18.4715
    21.0103  21.4429  28.5503  29.3005  30.4738  30.5317  31.6065  32.5306
    35.4607  35.5510  35.5990  37.2816  38.0925  39.4436

          k = 0.1667-0.0962 0.0000 (   996 PWs)   bands (ev):

   -12.6692 -12.3194  -0.8035   1.6867   1.7151   1.7920   2.8522   2.8532
    10.8865  15.2814  15.8164  16.3241  16.4104  18.7844  18.9473  19.0187
    21.1682  21.5973  28.2483  28.6192  29.7678  30.7544  31.6573  32.1440
    34.7607  34.8077  35.7620  36.5792  38.7756  40.3669

          k = 0.2000-0.1155 0.0000 (   990 PWs)   bands (ev):

   -12.4366 -12.0980  -0.4731   0.9868   1.1008   1.9756   2.5466   2.5798
    11.2399  14.9233  15.5652  15.6289  16.3689  19.5798  19.6711  19.8708
    20.9167  22.2240  27.3296  28.4755  29.1191  30.8287  30.8553  32.7742
    34.1960  34.3714  35.8900  35.9395  39.5478  39.9663

          k = 0.2333-0.1347 0.0000 (   982 PWs)   bands (ev):

   -12.1673 -11.8449  -0.0946   0.2419   0.3583   2.2555   2.2999   2.3251
    11.6321  14.3625  14.8397  15.4548  16.3440  20.1127  20.6753  20.7064
    20.8494  22.8914  26.5518  28.0666  28.5334  30.0869  30.9267  33.4112
    33.6371  34.4112  35.3671  35.8777  39.5968  40.3185

          k = 0.2667-0.1540 0.0000 (   992 PWs)   bands (ev):

   -11.8703 -11.5648  -0.5283  -0.4194   0.3369   1.9233   2.0043   2.6875
    12.0504  13.5649  14.1971  15.2916  16.3249  20.5420  20.5451  21.7093
    21.8816  23.5282  25.9082  27.4894  28.0131  29.4437  31.0600  33.1358
    33.9019  34.7427  34.8522  35.6749  39.2512  40.9608

          k = 0.3000-0.1732 0.0000 (   998 PWs)   bands (ev):

   -11.5485 -11.2621  -1.2599  -1.1811   0.8126   1.6506   1.7329   3.0776
    12.4914  12.6746  13.5580  15.1448  16.3335  20.4231  20.8248  22.7758
    22.9477  24.1668  25.4011  26.9399  27.5604  28.9183  31.2712  32.6981
    34.1455  34.4121  35.2452  35.3162  38.9065  41.4038

          k = 0.3333-0.1925 0.0000 (  1004 PWs)   bands (ev):

   -11.2118 -10.9485  -1.9885  -1.8824   1.3347   1.4020   1.4745   3.4874
    11.7795  12.9303  12.9463  15.0190  16.3811  20.3379  20.8333  23.8419
    24.0235  24.7835  25.0179  26.5762  27.1763  28.5125  31.5296  32.3253
    34.0397  34.1897  34.8526  35.7354  38.5375  41.6885

          k = 0.3667-0.2117 0.0000 (  1008 PWs)   bands (ev):

   -10.8705 -10.6368  -2.6368  -2.5304   1.1963   1.2680   1.8730   3.8850
    10.9179  12.3046  13.3881  14.9153  16.4816  20.2707  20.5887  24.7297
    24.8632  25.0425  25.3589  26.4820  26.8612  28.2236  31.8208  32.0188
    33.7390  34.0990  34.3440  36.0460  38.1817  41.6674

          k = 0.4000-0.2309 0.0000 (  1004 PWs)   bands (ev):

   -10.5468 -10.3491  -3.1849  -3.0562   1.0251   1.1101   2.4171   4.2502
    10.1536  11.7072  13.7860  14.8364  16.6679  20.1187  20.2213  24.5322
    25.7925  25.9037  25.9823  26.6159  26.6164  28.0352  31.7785  32.1174
    33.5064  33.8683  33.9404  36.1106  37.9414  41.0424

          k = 0.4333-0.2502 0.0000 (  1014 PWs)   bands (ev):

   -10.2733 -10.1150  -3.6337  -3.5215   0.9027   0.9909   2.9156   4.5072
     9.5361  11.2067  14.0844  14.7757  16.9481  19.5201  20.1805  24.3987
    26.2376  26.4405  26.5388  26.7407  26.8453  27.9343  31.6070  32.3897
    33.3443  33.4709  33.7469  35.9084  37.8900  40.5255

          k = 0.4667-0.2694 0.0000 (  1010 PWs)   bands (ev):

   -10.0747  -9.9606  -3.8898  -3.8086   0.8298   0.9569   3.2846   4.6559
     9.1286  10.8636  14.2745  14.7402  17.3182  18.9571  20.1566  24.3062
    26.3357  26.4854  27.0268  27.0770  27.2743  27.8914  31.5041  32.6065
    33.2067  33.2508  33.6085  35.6745  37.9436  40.1740

          k = 0.5000-0.2887 0.0000 (  1016 PWs)   bands (ev):

   -10.0046  -9.9151  -3.9970  -3.9176   0.8042   0.9088   3.4262   4.7006
     8.9892  10.7511  14.3351  14.7333  17.5477  18.6497  20.1410  24.2785
    26.3001  26.5746  27.0994  27.1699  27.4665  27.8828  31.4698  32.7072
    33.1150  33.2189  33.5593  35.5636  37.9650  40.0363

          k = 0.4889-0.3079 0.0000 (  1008 PWs)   bands (ev):

    -9.9987  -9.9076  -3.9909  -3.9103   0.7813   0.8869   3.4722   4.7171
     8.9969  10.7519  14.3763  14.7790  17.5547  18.6639  20.0656  24.3021
    26.3587  26.5584  26.8636  27.4188  27.4533  27.7510  31.6526  32.7095
    32.7096  33.1756  33.9746  35.5775  38.0152  39.8843

          k = 0.4777-0.3272 0.0000 (  1010 PWs)   bands (ev):

    -9.9820  -9.8937  -3.9644  -3.8833   0.6896   0.7846   3.4802   4.7295
     9.0140  10.7153  14.4954  14.9099  17.5815  18.7011  19.8202  24.2589
    26.5111  26.5162  26.5706  27.4036  27.4145  27.6715  32.0562  32.1302
    32.6999  33.3454  34.2650  35.6979  38.1938  39.5751

          k = 0.4666-0.3464 0.0000 (  1014 PWs)   bands (ev):

    -9.9586  -9.8704  -3.9501  -3.8571   0.5445   0.6403   3.5223   4.7520
     9.0429  10.6991  14.6872  15.1242  17.6056  18.7708  19.4577  24.2011
    26.2420  26.4151  26.7342  27.0109  27.3059  27.8169  31.4323  32.7007
    32.7889  33.6341  34.2018  35.9718  38.5246  39.2474

          k = 0.4555-0.3657 0.0000 (  1014 PWs)   bands (ev):

    -9.9252  -9.8384  -3.9129  -3.8175   0.3531   0.4504   3.5820   4.7878
     9.0825  10.6772  14.9432  15.4176  17.6518  18.8751  19.0142  24.0982
    25.9086  26.3022  26.6262  26.9717  27.1768  27.8715  30.8853  32.7215
    33.5521  33.9497  34.0429  36.2609  38.9546  39.0537

          k = 0.4443-0.3850 0.0000 (  1008 PWs)   bands (ev):

    -9.8814  -9.7969  -3.8567  -3.7648   0.1319   0.2306   3.6593   4.8400
     9.1320  10.6490  15.2523  15.7775  17.7170  18.5243  19.0171  23.9333
    25.5672  26.1818  26.3185  27.0401  27.1964  27.8045  30.4439  32.7659
    33.6417  34.3802  34.5705  36.4783  38.7121  39.7626

          k = 0.4332-0.4042 0.0000 (  1004 PWs)   bands (ev):

    -9.8321  -9.7484  -3.7991  -3.7011  -0.1189  -0.0296   3.7652   4.8902
     9.1886  10.6286  15.5980  16.1896  17.7866  18.0150  19.2007  23.7048
    25.2155  26.0439  26.1174  26.8058  27.3844  27.5910  30.1049  32.8234
    33.3483  35.2105  35.2616  36.6297  38.5219  40.5982

          k = 0.4221-0.4235 0.0000 (   996 PWs)   bands (ev):

    -9.7752  -9.6948  -3.7253  -3.6194  -0.3587  -0.3108   3.8753   4.9587
     9.2520  10.5786  15.9623  16.6416  17.5076  17.8743  19.4316  23.4144
    24.8748  25.8929  26.0219  26.5451  27.2752  27.5298  29.8133  32.9161
    33.1167  35.9521  36.1586  36.7403  38.3801  40.5663

          k = 0.4109-0.4427 0.0000 (   996 PWs)   bands (ev):

    -9.7149  -9.6387  -3.6497  -3.5376  -0.6548  -0.6048   3.9953   5.0135
     9.3179  10.5146  16.3336  17.0213  17.1138  17.9629  19.7144  23.0999
    24.5070  25.7367  26.0082  26.2152  26.8998  27.6199  29.5322  32.9887
    32.9986  36.7808  36.8332  37.0532  38.2843  40.2417

          k = 0.3998-0.4620 0.0000 (   996 PWs)   bands (ev):

    -9.6517  -9.5807  -3.5665  -3.4466  -0.9522  -0.9020   4.1275   5.0653
     9.3849  10.4376  16.5702  16.6946  17.5840  18.0589  20.0572  22.7898
    24.1456  25.5723  25.8571  26.0561  26.5171  27.6591  29.2218  32.9570
    33.0898  36.9195  37.6742  37.9399  38.2242  39.9503

          k = 0.3887-0.4813 0.0000 (   990 PWs)   bands (ev):

    -9.5868  -9.5229  -3.4726  -3.3317  -1.2360  -1.1826   4.2718   5.1098
     9.4512  10.3476  16.1676  17.0376  18.0173  18.1739  20.4641  22.5055
    23.8245  25.3598  25.5458  26.1503  26.1631  27.6505  28.8905  33.0095
    33.1878  37.0119  38.1896  38.5747  38.8017  39.7474

          k = 0.3775-0.5005 0.0000 (  1000 PWs)   bands (ev):

    -9.5292  -9.4727  -3.4095  -3.2331  -1.5245  -1.4517   4.4119   5.1358
     9.5138  10.2345  15.8249  17.3368  18.2206  18.3979  20.9270  22.2586
    23.5360  24.9636  25.3581  25.8255  26.2755  27.6037  28.5313  33.1023
    33.2422  37.1063  38.1606  39.1152  39.6117  39.9906

          k = 0.3664-0.5198 0.0000 (  1001 PWs)   bands (ev):

    -9.4709  -9.4290  -3.3251  -3.1341  -1.7714  -1.6790   4.5543   5.1469
     9.5757  10.1142  15.5515  17.6239  18.3107  18.6532  21.4546  22.0616
    23.3151  24.5122  25.2473  25.5297  26.4265  27.5078  28.2195  33.1998
    33.3375  37.2208  38.1238  39.0764  40.3452  40.8706

          k = 0.3553-0.5390 0.0000 (  1003 PWs)   bands (ev):

    -9.4232  -9.3933  -3.2537  -3.0412  -1.9562  -1.9017   4.7047   5.1272
     9.6385   9.9996  15.3545  17.8647  18.3713  18.7994  21.9204  21.9978
    23.1949  24.0526  25.1536  25.2994  26.6009  27.3705  27.9623  33.2910
    33.3987  37.3590  38.0503  38.9742  40.5779  40.9812

          k = 0.3441-0.5583 0.0000 (   999 PWs)   bands (ev):

    -9.3872  -9.3723  -3.2054  -2.9670  -2.0662  -2.0428   4.8531   5.0738
     9.7076   9.8876  15.2375  18.0855  18.3774  18.8432  21.8356  22.5688
    23.1499  23.5867  25.0966  25.1491  26.7979  27.2004  27.7945  33.3758
    33.4419  37.5285  37.9195  38.9055  40.3936  41.4813

          k = 0.3330-0.5775 0.0000 (  1005 PWs)   bands (ev):

    -9.3721  -9.3718  -3.2130  -2.9417  -2.1086  -2.1085   4.9764   4.9805
     9.7867   9.7899  15.2000  18.2584  18.2648  18.8216  21.8079  23.0957
    23.0987  23.1404  25.0769  25.0776  26.9983  27.0058  27.7227  33.3924
    33.4490  37.7235  37.7312  38.8827  40.3354  41.8075

          k = 0.3330-0.5775 0.0387 (  1005 PWs)   bands (ev):

    -9.3720  -9.3716  -3.2078  -2.9469  -2.1096  -2.1094   4.9893   4.9932
     9.7551   9.7581  15.2577  18.3358  18.3420  18.6475  21.9136  23.0897
    23.0927  23.1300  24.9933  24.9934  26.9807  26.9875  27.8892  33.3948
    33.4463  37.7040  37.8501  37.8572  41.4720  41.7746

          k = 0.3330-0.5775 0.0775 (   999 PWs)   bands (ev):

    -9.3708  -9.3705  -3.1881  -2.9620  -2.1107  -2.1105   5.0458   5.0492
     9.6821   9.6848  15.4294  18.2145  18.5534  18.5588  22.1537  23.0711
    23.0749  23.0984  24.7669  24.7681  26.9442  26.9494  28.3804  33.4031
    33.4372  36.0482  38.1920  38.1975  41.6881  41.6976

          k = 0.3330-0.5775 0.1162 (   996 PWs)   bands (ev):

    -9.3689  -9.3687  -3.1350  -2.9960  -2.1054  -2.1053   5.0779   5.0805
     9.5799   9.5820  15.7106  17.6706  18.8467  18.8510  22.4226  23.0237
    23.0323  23.0400  24.4788  24.4810  26.9029  26.9062  29.1687  33.3870
    33.4587  34.4335  38.6328  38.6360  41.5020  41.5106

          k = 0.3330-0.5775 0.1549 (   996 PWs)   bands (ev):

    -9.3709  -9.3708  -3.0978  -3.0302  -2.1116  -2.1115   5.1215   5.1229
     9.4961   9.4972  16.0918  17.0970  19.0929  19.0954  22.6478  22.9338
    22.9851  22.9868  24.2406  24.2423  26.8882  26.8898  30.2059  32.8293
    33.4132  33.4678  39.0420  39.0430  41.2801  41.2856

          k = 0.3330-0.5775 0.1936 (  1002 PWs)   bands (ev):

    -9.3718  -9.3718  -3.0667  -3.0666  -2.1147  -2.1147   5.1125   5.1125
     9.4637   9.4637  16.5603  16.5603  19.1846  19.1846  22.8097  22.8098
    22.9538  22.9538  24.1480  24.1480  26.8752  26.8752  31.4468  31.4468
    33.4237  33.4238  39.2002  39.2002  41.1851  41.1851

          k = 0.3108-0.5390 0.1936 (  1008 PWs)   bands (ev):

    -9.4206  -9.4205  -3.1180  -3.1179  -1.9728  -1.9728   5.0156   5.0157
     9.5343   9.5343  16.6395  16.6395  19.0776  19.0777  22.1208  22.1209
    23.2754  23.2755  24.4530  24.4531  27.0154  27.0154  31.5962  31.5962
    33.3691  33.3692  39.1002  39.1002  40.9429  40.9430

          k = 0.2886-0.5005 0.1936 (   990 PWs)   bands (ev):

    -9.5652  -9.5652  -3.0778  -3.0777  -1.6298  -1.6297   4.7521   4.7522
     9.7892   9.7892  16.8296  16.8297  18.8926  18.8926  21.3773  21.3774
    23.1666  23.1666  25.1432  25.1432  27.4560  27.4560  31.9438  31.9438
    33.3083  33.3083  38.8773  38.8773  40.3779  40.3779

          k = 0.2664-0.4620 0.1936 (   992 PWs)   bands (ev):

    -9.8169  -9.8169  -2.9237  -2.9236  -1.2126  -1.2125   4.3008   4.3009
    10.2128  10.2128  16.9843  16.9843  18.6867  18.6868  20.7156  20.7156
    22.9373  22.9373  25.7421  25.7421  27.9706  27.9706  32.0481  32.0482
    33.6597  33.6597  38.5491  38.5491  39.6710  39.6710

          k = 0.2442-0.4235 0.1936 (  1004 PWs)   bands (ev):

   -10.1524 -10.1524  -2.6185  -2.6185  -0.7626  -0.7625   3.7384   3.7384
    10.7754  10.7754  16.9191  16.9191  18.5286  18.5286  20.2598  20.2598
    22.7536  22.7536  26.1487  26.1488  28.4099  28.4099  31.8599  31.8599
    34.5438  34.5438  38.1299  38.1299  38.9551  38.9552

          k = 0.2220-0.3850 0.1936 (  1006 PWs)   bands (ev):

   -10.5323 -10.5323  -2.1507  -2.1507  -0.2621  -0.2620   3.1329   3.1329
    11.4345  11.4345  16.6381  16.6381  18.3039  18.3039  20.1307  20.1307
    22.7413  22.7413  26.2456  26.2456  28.7031  28.7031  31.8791  31.8792
    35.5857  35.5858  37.6012  37.6012  38.3733  38.3734

          k = 0.1998-0.3465 0.1936 (  1004 PWs)   bands (ev):

   -10.9298 -10.9298  -1.5831  -1.5830   0.2720   0.2720   2.5415   2.5415
    12.1383  12.1383  16.2826  16.2827  17.9351  17.9351  20.1608  20.1608
    23.0323  23.0324  25.8495  25.8496  28.9921  28.9921  32.2052  32.2052
    36.4261  36.4261  37.0258  37.0258  38.0732  38.0732

          k = 0.1776-0.3080 0.1936 (  1002 PWs)   bands (ev):

   -11.3228 -11.3227  -0.9231  -0.9230   0.8181   0.8181   1.9756   1.9757
    12.7914  12.7914  15.9824  15.9824  17.5279  17.5280  20.0949  20.0949
    23.6535  23.6535  25.0880  25.0880  29.3771  29.3771  32.6581  32.6581
    36.0476  36.0476  37.1832  37.1832  38.2735  38.2735

          k = 0.1554-0.2695 0.1936 (  1006 PWs)   bands (ev):

   -11.6950 -11.6949  -0.2161  -0.2160   1.3063   1.3064   1.4991   1.4991
    13.2770  13.2771  15.8706  15.8706  17.1612  17.1612  19.8714  19.8714
    23.8615  23.8615  24.8312  24.8312  29.8323  29.8323  32.9990  32.9990
    35.2962  35.2962  37.4114  37.4114  38.8606  38.8606

          k = 0.1332-0.2310 0.1936 (  1006 PWs)   bands (ev):

   -12.0336 -12.0335   0.4875   0.4875   1.0181   1.0181   1.9024   1.9025
    13.4673  13.4674  16.0568  16.0569  16.8779  16.8779  19.5105  19.5105
    22.9457  22.9458  25.8867  25.8867  30.3167  30.3167  33.0380  33.0380
    34.6342  34.6342  37.8342  37.8342  39.0220  39.0220

          k = 0.1110-0.1925 0.1936 (  1006 PWs)   bands (ev):

   -12.3292 -12.3291   0.4760   0.4760   1.3801   1.3802   2.4096   2.4097
    13.4068  13.4068  16.3970  16.3970  16.7717  16.7717  19.0225  19.0226
    22.0624  22.0624  27.1370  27.1370  30.7933  30.7933  32.7064  32.7064
    34.2125  34.2125  38.3260  38.3260  38.8437  38.8437

          k = 0.0888-0.1540 0.1936 (   998 PWs)   bands (ev):

   -12.5771 -12.5770   0.1636   0.1637   2.1046   2.1047   2.8799   2.8799
    13.2315  13.2315  16.4615  16.4615  17.0985  17.0985  18.4401  18.4402
    21.3899  21.3899  28.4226  28.4226  31.1802  31.1802  32.3415  32.3415
    33.9927  33.9927  38.0701  38.0701  39.6146  39.6146

          k = 0.0666-0.1155 0.1936 (  1002 PWs)   bands (ev):

   -12.7743 -12.7742  -0.1035  -0.1035   2.7645   2.7646   3.2577   3.2578
    13.0248  13.0248  16.4510  16.4511  17.3651  17.3651  17.9039  17.9039
    20.9447  20.9448  29.5304  29.5304  31.2597  31.2597  32.5287  32.5287
    33.8945  33.8945  37.7563  37.7563  40.0130  40.0130

          k = 0.0444-0.0770 0.1936 (  1010 PWs)   bands (ev):

   -12.9177 -12.9176  -0.2973  -0.2972   3.2875   3.2876   3.5333   3.5334
    12.8431  12.8431  16.4852  16.4853  17.0634  17.0634  17.8701  17.8701
    20.7004  20.7004  29.9624  29.9624  31.5826  31.5826  33.2100  33.2100
    33.9505  33.9505  37.5274  37.5274  38.9351  38.9351

          k = 0.0222-0.0385 0.1936 (  1002 PWs)   bands (ev):

   -13.0022 -13.0021  -0.4033  -0.4032   3.6713   3.6713   3.7222   3.7223
    12.7247  12.7247  16.5466  16.5467  16.6987  16.6987  17.9752  17.9752
    20.6101  20.6101  29.8905  29.8905  32.0774  32.0774  34.0195  34.0196
    34.2134  34.2134  37.3938  37.3938  37.8418  37.8418

          k = 0.0000 0.0000 0.1936 (  1008 PWs)   bands (ev):

   -13.0321 -13.0320  -0.4446  -0.4446   3.7773   3.7774   3.7774   3.7774
    12.6791  12.6791  16.5631  16.5631  16.5632  16.5632  17.9832  17.9832
    20.5910  20.5910  29.8304  29.8305  32.2453  32.2453  34.4271  34.4271
    34.4271  34.4271  37.3517  37.3517  37.3517  37.3517

          k = 0.0333-0.0192 0.1936 (  1002 PWs)   bands (ev):

   -13.0093 -13.0092  -0.4111  -0.4110   3.6987   3.6987   3.7341   3.7342
    12.7141  12.7141  16.5542  16.5543  16.6673  16.6673  17.9788  17.9788
    20.6047  20.6047  29.8769  29.8770  32.1223  32.1223  34.1216  34.1217
    34.2465  34.2465  37.3902  37.3902  37.7221  37.7221

          k = 0.0667-0.0385 0.1936 (  1010 PWs)   bands (ev):

   -12.9461 -12.9460  -0.3356  -0.3355   3.3906   3.3907   3.6134   3.6135
    12.8023  12.8023  16.4856  16.4856  16.9724  16.9724  17.8907  17.8907
    20.6627  20.6627  29.9618  29.9619  31.7404  31.7404  33.4608  33.4609
    33.9373  33.9373  37.5453  37.5453  38.5731  38.5731

          k = 0.1000-0.0577 0.1936 (  1004 PWs)   bands (ev):

   -12.8387 -12.8387  -0.1949  -0.1948   2.9844   2.9844   3.4142   3.4142
    12.9425  12.9425  16.4017  16.4018  17.4475  17.4475  17.7531  17.7531
    20.8180  20.8180  29.8354  29.8354  31.3758  31.3758  32.7154  32.7154
    33.7718  33.7718  37.8080  37.8080  39.6236  39.6237

          k = 0.1333-0.0770 0.1936 (  1008 PWs)   bands (ev):

   -12.6910 -12.6910   0.0050   0.0051   2.4137   2.4137   3.1329   3.1329
    13.1007  13.1007  16.2773  16.2774  17.5112  17.5112  18.0850  18.0851
    21.0780  21.0780  29.1979  29.1979  31.4461  31.4462  31.9772  31.9772
    33.7620  33.7620  38.0432  38.0433  40.7008  40.7008

          k = 0.1667-0.0962 0.1936 (  1004 PWs)   bands (ev):

   -12.5015 -12.5015   0.2553   0.2554   1.7666   1.7667   2.8549   2.8549
    13.2560  13.2560  16.0930  16.0930  17.2185  17.2185  18.8737  18.8737
    21.4497  21.4497  28.3168  28.3169  31.2825  31.2825  31.7379  31.7379
    33.8765  33.8765  37.9745  37.9745  40.2593  40.2593

          k = 0.2000-0.1155 0.1936 (  1010 PWs)   bands (ev):

   -12.2758 -12.2758   0.5146   0.5147   1.0820   1.0821   2.5407   2.5407
    13.3560  13.3560  15.7991  15.7992  16.9873  16.9873  19.7548  19.7548
    21.8780  21.8780  27.4237  27.4237  30.6434  30.6434  31.9676  31.9676
    34.1042  34.1042  37.5453  37.5453  40.3734  40.3734

          k = 0.2333-0.1347 0.1936 (   994 PWs)   bands (ev):

   -12.0124 -12.0124   0.2311   0.2312   1.0170   1.0171   2.2710   2.2711
    13.3675  13.3675  15.4227  15.4228  16.9084  16.9084  20.7469  20.7470
    22.3493  22.3494  26.6140  26.6141  30.0685  30.0686  32.0063  32.0063
    34.3793  34.3793  37.1729  37.1729  40.6619  40.6619

          k = 0.2667-0.1540 0.1936 (   992 PWs)   bands (ev):

   -11.7227 -11.7227  -0.4918  -0.4918   1.3999   1.3999   1.9777   1.9778
    13.1538  13.1538  15.0891  15.0891  16.9532  16.9532  21.7812  21.7813
    22.7846  22.7846  25.9260  25.9260  29.5587  29.5587  31.8467  31.8467
    34.5317  34.5317  37.1478  37.1478  40.5486  40.5486

          k = 0.3000-0.1732 0.1936 (   996 PWs)   bands (ev):

   -11.4087 -11.4086  -1.2377  -1.2376   1.7066   1.7067   1.8404   1.8405
    12.6887  12.6888  14.8969  14.8970  17.1043  17.1043  22.8436  22.8437
    23.0731  23.0731  25.4275  25.4275  29.1189  29.1190  31.5329  31.5329
    34.5132  34.5132  37.4554  37.4554  40.1005  40.1005

          k = 0.3333-0.1925 0.1936 (   998 PWs)   bands (ev):

   -11.0821 -11.0821  -1.9474  -1.9473   1.4669   1.4670   2.3200   2.3200
    12.0568  12.0569  14.8162  14.8163  17.3477  17.3478  23.1018  23.1018
    23.9045  23.9046  25.2138  25.2138  28.7527  28.7528  31.1777  31.1777
    34.4101  34.4101  37.8641  37.8642  39.6910  39.6910

          k = 0.3667-0.2117 0.1936 (  1002 PWs)   bands (ev):

   -10.7560 -10.7559  -2.5842  -2.5841   1.2547   1.2548   2.8072   2.8073
    11.3535  11.3535  14.7854  14.7854  17.6400  17.6400  22.8882  22.8883
    24.9181  24.9182  25.2305  25.2306  28.4658  28.4658  30.8730  30.8730
    34.2799  34.2799  38.1494  38.1494  39.3201  39.3202

          k = 0.4000-0.2309 0.1936 (  1010 PWs)   bands (ev):

   -10.4511 -10.4511  -3.1536  -3.1536   1.0815   1.0815   3.2738   3.2738
    10.6742  10.6743  14.7670  14.7670  17.9572  17.9572  22.5375  22.5375
    25.3423  25.3423  25.8275  25.8276  28.2700  28.2700  30.6866  30.6866
    34.1310  34.1310  38.2143  38.2143  38.9934  38.9934

          k = 0.4333-0.2502 0.1936 (  1002 PWs)   bands (ev):

   -10.1929 -10.1928  -3.5728  -3.5728   0.9598   0.9598   3.7068   3.7069
    10.1029  10.1030  14.7594  14.7595  18.2734  18.2734  22.1968  22.1968
    25.4700  25.4700  26.5293  26.5294  28.1862  28.1862  30.6291  30.6291
    33.9943  33.9943  38.1493  38.1493  38.7208  38.7208

          k = 0.4667-0.2694 0.1936 (   994 PWs)   bands (ev):

   -10.0161 -10.0160  -3.8578  -3.8577   0.9023   0.9023   4.0326   4.0326
     9.6998   9.6998  14.7540  14.7540  18.5221  18.5221  21.9415  21.9415
    25.5303  25.5303  26.9327  26.9327  28.2144  28.2144  30.6510  30.6510
    33.8773  33.8774  38.0621  38.0621  38.5333  38.5334

          k = 0.5000-0.2887 0.1936 (   992 PWs)   bands (ev):

    -9.9535  -9.9535  -3.9521  -3.9521   0.8785   0.8785   4.1479   4.1479
     9.5528   9.5529  14.7528  14.7529  18.6191  18.6191  21.8455  21.8455
    25.5498  25.5498  27.0458  27.0459  28.2519  28.2519  30.6704  30.6704
    33.8262  33.8262  38.0245  38.0245  38.4640  38.4640

     Writing output data file hbn.save

     init_run     :      0.05s CPU      0.07s WALL (       1 calls)
     electrons    :     13.78s CPU     13.90s WALL (       1 calls)

     Called by init_run:
     wfcinit      :      0.00s CPU      0.01s WALL (       1 calls)
     potinit      :      0.00s CPU      0.01s WALL (       1 calls)

     Called by electrons:
     c_bands      :     13.77s CPU     13.90s WALL (       1 calls)
     v_of_rho     :      0.00s CPU      0.00s WALL (       1 calls)
     v_h          :      0.00s CPU      0.00s WALL (       1 calls)
     v_xc         :      0.00s CPU      0.00s WALL (       1 calls)

     Called by c_bands:
     init_us_2    :      0.00s CPU      0.00s WALL (      81 calls)
     cegterg      :     12.90s CPU     13.01s WALL (      81 calls)

     Called by sum_band:

     Called by *egterg:
     h_psi        :      4.79s CPU      4.87s WALL (     958 calls)
     g_psi        :      0.05s CPU      0.04s WALL (     796 calls)
     cdiaghg      :      5.71s CPU      5.72s WALL (     877 calls)
     cegterg:over :      1.54s CPU      1.54s WALL (     796 calls)
     cegterg:upda :      0.75s CPU      0.74s WALL (     796 calls)
     cegterg:last :      0.46s CPU      0.46s WALL (     162 calls)

     Called by h_psi:
     h_psi:vloc   :      4.66s CPU      4.75s WALL (     958 calls)
     h_psi:vnl    :      0.12s CPU      0.11s WALL (     958 calls)
     add_vuspsi   :      0.05s CPU      0.04s WALL (     958 calls)

     General routines
     calbec       :      0.07s CPU      0.06s WALL (     958 calls)
     fft          :      0.00s CPU      0.00s WALL (       3 calls)
     fftw         :      4.34s CPU      4.43s WALL (   36884 calls)
     davcio       :      0.00s CPU      0.01s WALL (     162 calls)

     Parallel routines
     fft_scatter  :      0.58s CPU      0.62s WALL (   36887 calls)

     PWSCF        :    14.35s CPU        16.47s WALL


   This run was terminated on:   9:31:27   2Mar2016            

=------------------------------------------------------------------------------=
   JOB DONE.
=------------------------------------------------------------------------------=
