
     Program PWSCF v.5.2.0 starts on 23Mar2017 at 15: 3:29 

     This program is part of the open-source Quantum ESPRESSO suite
     for quantum simulation of materials; please cite
         "P. Giannozzi et al., J. Phys.:Condens. Matter 21 395502 (2009);
          URL http://www.quantum-espresso.org", 
     in publications or presentations arising from this work. More details at
     http://www.quantum-espresso.org/quote

     Parallel version (MPI & OpenMP), running on       1 processor cores
     Number of MPI processes:                 1
     Threads/MPI process:                     1
     Waiting for input...
     Reading input from standard input

     Current dimensions of program PWSCF are:
     Max number of different atomic species (ntypx) = 10
     Max number of k-points (npk) =  40000
     Max angular momentum in pseudopotentials (lmaxx) =  3

     Subspace diagonalization in iterative solution of the eigenvalue problem:
     a serial algorithm will be used


     G-vector sticks info
     --------------------
     sticks:   dense  smooth     PW     G-vecs:    dense   smooth      PW
     Sum         253     253     85                 8029     8029    1685



     bravais-lattice index     =            4
     lattice parameter (alat)  =       4.7160  a.u.
     unit-cell volume          =     234.5353 (a.u.)^3
     number of atoms/cell      =            4
     number of atomic types    =            2
     number of electrons       =        16.00
     number of Kohn-Sham states=            8
     kinetic-energy cutoff     =      40.0000  Ry
     charge density cutoff     =     160.0000  Ry
     convergence threshold     =      1.0E-08
     mixing beta               =       0.7000
     number of iterations used =            8  plain     mixing
     Exchange-correlation      =  SLA  PZ   NOGX NOGC ( 1  1  0  0 0 0)

     celldm(1)=   4.716000  celldm(2)=   0.000000  celldm(3)=   2.582000
     celldm(4)=   0.000000  celldm(5)=   0.000000  celldm(6)=   0.000000

     crystal axes: (cart. coord. in units of alat)
               a(1) = (   1.000000   0.000000   0.000000 )  
               a(2) = (  -0.500000   0.866025   0.000000 )  
               a(3) = (   0.000000   0.000000   2.582000 )  

     reciprocal axes: (cart. coord. in units 2 pi/alat)
               b(1) = (  1.000000  0.577350 -0.000000 )  
               b(2) = (  0.000000  1.154701  0.000000 )  
               b(3) = (  0.000000 -0.000000  0.387297 )  


     PseudoPot. # 1 for B  read from file:
     ./Pseudos/B.pz-vbc.UPF
     MD5 check sum: b59596b5d63edeea6a2b3a0beace49c5
     Pseudo is Norm-conserving, Zval =  3.0
     Generated by new atomic code, or converted to UPF format
     Using radial grid of  157 points,  1 beta functions with: 
                l(1) =   0

     PseudoPot. # 2 for N  read from file:
     ./Pseudos/N.pz-vbc.UPF
     MD5 check sum: f7a51f6f78412844d17f6e69b370b417
     Pseudo is Norm-conserving, Zval =  5.0
     Generated by new atomic code, or converted to UPF format
     Using radial grid of  161 points,  1 beta functions with: 
                l(1) =   0

     atomic species   valence    mass     pseudopotential
        B              3.00    10.00000     B ( 1.00)
        N              5.00    14.00000     N ( 1.00)

     12 Sym. Ops. (no inversion) found


                                    s                        frac. trans.

      isym =  1     identity                                     

 cryst.   s( 1) = (     1          0          0      )
                  (     0          1          0      )
                  (     0          0          1      )

 cart.    s( 1) = (  1.0000000  0.0000000  0.0000000 )
                  (  0.0000000  1.0000000  0.0000000 )
                  (  0.0000000  0.0000000  1.0000000 )


      isym =  2     180 deg rotation - cart. axis [0,1,0]        

 cryst.   s( 2) = (    -1          0          0      )
                  (     1          1          0      )
                  (     0          0         -1      )

 cart.    s( 2) = ( -1.0000000  0.0000000  0.0000000 )
                  (  0.0000000  1.0000000  0.0000000 )
                  (  0.0000000  0.0000000 -1.0000000 )


      isym =  3     120 deg rotation - cryst. axis [0,0,1]       

 cryst.   s( 3) = (     0          1          0      )
                  (    -1         -1          0      )
                  (     0          0          1      )

 cart.    s( 3) = ( -0.5000000 -0.8660254  0.0000000 )
                  (  0.8660254 -0.5000000  0.0000000 )
                  (  0.0000000  0.0000000  1.0000000 )


      isym =  4     120 deg rotation - cryst. axis [0,0,-1]      

 cryst.   s( 4) = (    -1         -1          0      )
                  (     1          0          0      )
                  (     0          0          1      )

 cart.    s( 4) = ( -0.5000000  0.8660254  0.0000000 )
                  ( -0.8660254 -0.5000000  0.0000000 )
                  (  0.0000000  0.0000000  1.0000000 )


      isym =  5     180 deg rotation - cryst. axis [1,-1,0]      

 cryst.   s( 5) = (     0         -1          0      )
                  (    -1          0          0      )
                  (     0          0         -1      )

 cart.    s( 5) = (  0.5000000 -0.8660254  0.0000000 )
                  ( -0.8660254 -0.5000000  0.0000000 )
                  (  0.0000000  0.0000000 -1.0000000 )


      isym =  6     180 deg rotation - cryst. axis [2,1,0]       

 cryst.   s( 6) = (     1          1          0      )
                  (     0         -1          0      )
                  (     0          0         -1      )

 cart.    s( 6) = (  0.5000000  0.8660254  0.0000000 )
                  (  0.8660254 -0.5000000  0.0000000 )
                  (  0.0000000  0.0000000 -1.0000000 )


      isym =  7     inv. 180 deg rotation - cart. axis [0,0,1]   

 cryst.   s( 7) = (     1          0          0      )
                  (     0          1          0      )
                  (     0          0         -1      )

 cart.    s( 7) = (  1.0000000  0.0000000  0.0000000 )
                  (  0.0000000  1.0000000  0.0000000 )
                  (  0.0000000  0.0000000 -1.0000000 )


      isym =  8     inv. 180 deg rotation - cart. axis [1,0,0]   

 cryst.   s( 8) = (    -1          0          0      )
                  (     1          1          0      )
                  (     0          0          1      )

 cart.    s( 8) = ( -1.0000000  0.0000000  0.0000000 )
                  (  0.0000000  1.0000000  0.0000000 )
                  (  0.0000000  0.0000000  1.0000000 )


      isym =  9     inv.  60 deg rotation - cryst. axis [0,0,1]  

 cryst.   s( 9) = (    -1         -1          0      )
                  (     1          0          0      )
                  (     0          0         -1      )

 cart.    s( 9) = ( -0.5000000  0.8660254  0.0000000 )
                  ( -0.8660254 -0.5000000  0.0000000 )
                  (  0.0000000  0.0000000 -1.0000000 )


      isym = 10     inv.  60 deg rotation - cryst. axis [0,0,-1] 

 cryst.   s(10) = (     0          1          0      )
                  (    -1         -1          0      )
                  (     0          0         -1      )

 cart.    s(10) = ( -0.5000000 -0.8660254  0.0000000 )
                  (  0.8660254 -0.5000000  0.0000000 )
                  (  0.0000000  0.0000000 -1.0000000 )


      isym = 11     inv. 180 deg rotation - cryst. axis [0,1,0]  

 cryst.   s(11) = (     1          1          0      )
                  (     0         -1          0      )
                  (     0          0          1      )

 cart.    s(11) = (  0.5000000  0.8660254  0.0000000 )
                  (  0.8660254 -0.5000000  0.0000000 )
                  (  0.0000000  0.0000000  1.0000000 )


      isym = 12     inv. 180 deg rotation - cryst. axis [1,1,0]  

 cryst.   s(12) = (     0         -1          0      )
                  (    -1          0          0      )
                  (     0          0          1      )

 cart.    s(12) = (  0.5000000 -0.8660254  0.0000000 )
                  ( -0.8660254 -0.5000000  0.0000000 )
                  (  0.0000000  0.0000000  1.0000000 )


     point group D_3h (-62m)
     there are  6 classes
     the character table:

       E     2C3   3C2   s_h   2S3   3s_v 
A'_1   1.00  1.00  1.00  1.00  1.00  1.00
A'_2   1.00  1.00 -1.00  1.00  1.00 -1.00
E'     2.00 -1.00  0.00  2.00 -1.00  0.00
A''1   1.00  1.00  1.00 -1.00 -1.00 -1.00
A''2   1.00  1.00 -1.00 -1.00 -1.00  1.00
E''    2.00 -1.00  0.00 -2.00  1.00  0.00

     the symmetry operations in each class and the name of the first element:

     E        1
          identity                                               
     2C3      3    4
          120 deg rotation - cryst. axis [0,0,1]                 
     3C2      2    6    5
          180 deg rotation - cart. axis [0,1,0]                  
     s_h      7
          inv. 180 deg rotation - cart. axis [0,0,1]             
     2S3      9   10
          inv.  60 deg rotation - cryst. axis [0,0,1]            
     3s_v     8   11   12
          inv. 180 deg rotation - cart. axis [1,0,0]             

   Cartesian axes

     site n.     atom                  positions (alat units)
         1           B   tau(   1) = (   0.5000000   0.2886751   0.0000000  )
         2           N   tau(   2) = (  -0.5000000  -0.2886751   0.0000000  )
         3           B   tau(   3) = (  -0.5000000  -0.2886751   1.2910000  )
         4           N   tau(   4) = (   0.5000000   0.2886751   1.2910000  )

   Crystallographic axes

     site n.     atom                  positions (cryst. coord.)
         1           B   tau(   1) = (  0.6666667  0.3333333  0.0000000  )
         2           N   tau(   2) = ( -0.6666667 -0.3333333  0.0000000  )
         3           B   tau(   3) = ( -0.6666667 -0.3333333  0.5000000  )
         4           N   tau(   4) = (  0.6666667  0.3333333  0.5000000  )

     number of k points=    12
                       cart. coord. in units 2pi/alat
        k(    1) = (   0.0833333   0.1443376   0.0968242), wk =   0.1111111
        k(    2) = (   0.0833333   0.3367877   0.0968242), wk =   0.2222222
        k(    3) = (   0.0833333   0.5292377   0.0968242), wk =   0.2222222
        k(    4) = (   0.0833333  -0.4330127   0.0968242), wk =   0.2222222
        k(    5) = (   0.0833333  -0.2405626   0.0968242), wk =   0.2222222
        k(    6) = (   0.0833333  -0.0481125   0.0968242), wk =   0.1111111
        k(    7) = (   0.2500000   0.4330127   0.0968242), wk =   0.1111111
        k(    8) = (   0.2500000   0.6254628   0.0968242), wk =   0.2222222
        k(    9) = (   0.2500000  -0.3367877   0.0968242), wk =   0.2222222
        k(   10) = (   0.2500000  -0.1443376   0.0968242), wk =   0.1111111
        k(   11) = (   0.4166667   0.7216878   0.0968242), wk =   0.1111111
        k(   12) = (   0.4166667  -0.2405626   0.0968242), wk =   0.1111111

                       cryst. coord.
        k(    1) = (   0.0833333   0.0833333   0.2500000), wk =   0.1111111
        k(    2) = (   0.0833333   0.2500000   0.2500000), wk =   0.2222222
        k(    3) = (   0.0833333   0.4166667   0.2500000), wk =   0.2222222
        k(    4) = (   0.0833333  -0.4166667   0.2500000), wk =   0.2222222
        k(    5) = (   0.0833333  -0.2500000   0.2500000), wk =   0.2222222
        k(    6) = (   0.0833333  -0.0833333   0.2500000), wk =   0.1111111
        k(    7) = (   0.2500000   0.2500000   0.2500000), wk =   0.1111111
        k(    8) = (   0.2500000   0.4166667   0.2500000), wk =   0.2222222
        k(    9) = (   0.2500000  -0.4166667   0.2500000), wk =   0.2222222
        k(   10) = (   0.2500000  -0.2500000   0.2500000), wk =   0.1111111
        k(   11) = (   0.4166667   0.4166667   0.2500000), wk =   0.1111111
        k(   12) = (   0.4166667  -0.4166667   0.2500000), wk =   0.1111111

     Dense  grid:     8029 G-vectors     FFT dimensions: (  20,  20,  50)

     Largest allocated arrays     est. size (Mb)     dimensions
        Kohn-Sham Wavefunctions         0.12 Mb     (    1005,    8)
        NL pseudopotentials             0.06 Mb     (    1005,    4)
        Each V/rho on FFT grid          0.31 Mb     (   20000)
        Each G-vector array             0.06 Mb     (    8029)
        G-vector shells                 0.00 Mb     (     470)
     Largest temporary arrays     est. size (Mb)     dimensions
        Auxiliary wavefunctions         0.49 Mb     (    1005,   32)
        Each subspace H/S matrix        0.02 Mb     (      32,   32)
        Each <psi_i|beta_j> matrix      0.00 Mb     (       4,    8)
        Arrays for rho mixing           2.44 Mb     (   20000,    8)

     Initial potential from superposition of free atoms

     starting charge   15.99937, renormalised to   16.00000
     Starting wfc are   16 randomized atomic wfcs

     total cpu time spent up to now is        0.2 secs

     Self-consistent Calculation

     iteration #  1     ecut=    40.00 Ry     beta=0.70
     Davidson diagonalization with overlap
     ethr =  1.00E-02,  avg # of iterations =  2.0

     total cpu time spent up to now is        0.5 secs

     total energy              =     -50.95785457 Ry
     Harris-Foulkes estimate   =     -51.28873482 Ry
     estimated scf accuracy    <       0.51917235 Ry

     iteration #  2     ecut=    40.00 Ry     beta=0.70
     Davidson diagonalization with overlap
     ethr =  3.24E-03,  avg # of iterations =  3.0

     total cpu time spent up to now is        0.9 secs

     total energy              =     -51.06729196 Ry
     Harris-Foulkes estimate   =     -51.17426806 Ry
     estimated scf accuracy    <       0.19703047 Ry

     iteration #  3     ecut=    40.00 Ry     beta=0.70
     Davidson diagonalization with overlap
     ethr =  1.23E-03,  avg # of iterations =  2.6

     total cpu time spent up to now is        1.2 secs

     total energy              =     -51.11021711 Ry
     Harris-Foulkes estimate   =     -51.11135628 Ry
     estimated scf accuracy    <       0.00342089 Ry

     iteration #  4     ecut=    40.00 Ry     beta=0.70
     Davidson diagonalization with overlap
     ethr =  2.14E-05,  avg # of iterations =  2.2

     total cpu time spent up to now is        1.5 secs

     total energy              =     -51.11094422 Ry
     Harris-Foulkes estimate   =     -51.11110078 Ry
     estimated scf accuracy    <       0.00029318 Ry

     iteration #  5     ecut=    40.00 Ry     beta=0.70
     Davidson diagonalization with overlap
     ethr =  1.83E-06,  avg # of iterations =  2.6

     total cpu time spent up to now is        1.8 secs

     total energy              =     -51.11100070 Ry
     Harris-Foulkes estimate   =     -51.11106130 Ry
     estimated scf accuracy    <       0.00011094 Ry

     iteration #  6     ecut=    40.00 Ry     beta=0.70
     Davidson diagonalization with overlap
     ethr =  6.93E-07,  avg # of iterations =  2.0

     total cpu time spent up to now is        2.1 secs

     total energy              =     -51.11101840 Ry
     Harris-Foulkes estimate   =     -51.11101852 Ry
     estimated scf accuracy    <       0.00000025 Ry

     iteration #  7     ecut=    40.00 Ry     beta=0.70
     Davidson diagonalization with overlap
     ethr =  1.57E-09,  avg # of iterations =  3.9

     total cpu time spent up to now is        2.5 secs

     total energy              =     -51.11101893 Ry
     Harris-Foulkes estimate   =     -51.11101897 Ry
     estimated scf accuracy    <       0.00000014 Ry

     iteration #  8     ecut=    40.00 Ry     beta=0.70
     Davidson diagonalization with overlap
     ethr =  8.72E-10,  avg # of iterations =  1.0

     total cpu time spent up to now is        2.7 secs

     total energy              =     -51.11101891 Ry
     Harris-Foulkes estimate   =     -51.11101893 Ry
     estimated scf accuracy    <       0.00000004 Ry

     iteration #  9     ecut=    40.00 Ry     beta=0.70
     Davidson diagonalization with overlap
     ethr =  2.54E-10,  avg # of iterations =  2.7

     total cpu time spent up to now is        3.1 secs

     End of self-consistent calculation

          k = 0.0833 0.1443 0.0968 (  1001 PWs)   bands (ev):

   -12.7556 -12.5042  -0.7037   1.0351   2.2563   2.2857   2.9680   2.9788

     occupation numbers 
     1.0000   1.0000   1.0000   1.0000   1.0000   1.0000   1.0000   1.0000

          k = 0.0833 0.3368 0.0968 (  1001 PWs)   bands (ev):

   -11.5031 -11.3002  -1.1017  -1.0420   1.1023   1.3581   1.4098   2.6975

     occupation numbers 
     1.0000   1.0000   1.0000   1.0000   1.0000   1.0000   1.0000   1.0000

          k = 0.0833 0.5292 0.0968 (  1004 PWs)   bands (ev):

   -10.0268  -9.9428  -3.7708  -3.6908   0.4759   0.5312   3.5548   4.5513

     occupation numbers 
     1.0000   1.0000   1.0000   1.0000   1.0000   1.0000   1.0000   1.0000

          k = 0.0833-0.4330 0.0968 (  1001 PWs)   bands (ev):

   -10.6757 -10.5206  -2.7227  -2.6531   0.7819   0.8419   2.3988   3.7686

     occupation numbers 
     1.0000   1.0000   1.0000   1.0000   1.0000   1.0000   1.0000   1.0000

          k = 0.0833-0.2406 0.0968 (  1001 PWs)   bands (ev):

   -12.2324 -12.0007   0.0056   0.6989   0.7288   1.7506   2.1345   2.1795

     occupation numbers 
     1.0000   1.0000   1.0000   1.0000   1.0000   1.0000   1.0000   1.0000

          k = 0.0833-0.0481 0.0968 (  1005 PWs)   bands (ev):

   -13.0261 -12.7640  -1.0666   0.6868   3.2028   3.2150   3.4997   3.5158

     occupation numbers 
     1.0000   1.0000   1.0000   1.0000   1.0000   1.0000   1.0000   1.0000

          k = 0.2500 0.4330 0.0968 (   999 PWs)   bands (ev):

   -10.1253 -10.0051  -2.7190  -2.6764  -0.9033  -0.8468   3.3019   4.4790

     occupation numbers 
     1.0000   1.0000   1.0000   1.0000   1.0000   1.0000   1.0000   1.0000

          k = 0.2500 0.6255 0.0968 (   998 PWs)   bands (ev):

    -9.5905  -9.5358  -3.2732  -3.1626  -1.5028  -1.4554   4.3685   5.0634

     occupation numbers 
     1.0000   1.0000   1.0000   1.0000   1.0000   1.0000   1.0000   1.0000

          k = 0.2500-0.3368 0.0968 (  1003 PWs)   bands (ev):

   -10.8447 -10.6752  -1.9728  -1.9313   0.1825   0.2400   2.1053   3.5586

     occupation numbers 
     1.0000   1.0000   1.0000   1.0000   1.0000   1.0000   1.0000   1.0000

          k = 0.2500-0.1443 0.0968 (   995 PWs)   bands (ev):

   -11.9811 -11.7583  -0.1751  -0.0687   0.4264   2.0704   2.0973   2.1276

     occupation numbers 
     1.0000   1.0000   1.0000   1.0000   1.0000   1.0000   1.0000   1.0000

          k = 0.4167 0.7217 0.0968 (  1002 PWs)   bands (ev):

    -9.7381  -9.6826  -3.6920  -3.6027  -0.5270  -0.4694   4.1048   4.8780

     occupation numbers 
     1.0000   1.0000   1.0000   1.0000   1.0000   1.0000   1.0000   1.0000

          k = 0.4167-0.2406 0.0968 (  1003 PWs)   bands (ev):

   -10.3765 -10.2525  -3.4187  -3.3252   0.9665   1.0513   2.9167   4.1440

     occupation numbers 
     1.0000   1.0000   1.0000   1.0000   1.0000   1.0000   1.0000   1.0000

     highest occupied level (ev):     5.0634

!    total energy              =     -51.11101892 Ry
     Harris-Foulkes estimate   =     -51.11101893 Ry
     estimated scf accuracy    <          3.2E-09 Ry

     The total energy is the sum of the following terms:

     one-electron contribution =     -13.55228498 Ry
     hartree contribution      =      14.95485761 Ry
     xc contribution           =     -14.51500452 Ry
     ewald contribution        =     -37.99858704 Ry

     convergence has been achieved in   9 iterations

     Writing output data file hBN.save

     init_run     :      0.21s CPU      0.22s WALL (       1 calls)
     electrons    :      2.78s CPU      2.83s WALL (       1 calls)

     Called by init_run:
     wfcinit      :      0.19s CPU      0.20s WALL (       1 calls)
     potinit      :      0.01s CPU      0.01s WALL (       1 calls)

     Called by electrons:
     c_bands      :      2.35s CPU      2.38s WALL (       9 calls)
     sum_band     :      0.39s CPU      0.40s WALL (       9 calls)
     v_of_rho     :      0.02s CPU      0.02s WALL (      10 calls)
     v_h          :      0.01s CPU      0.01s WALL (      10 calls)
     v_xc         :      0.01s CPU      0.01s WALL (      10 calls)
     mix_rho      :      0.02s CPU      0.02s WALL (       9 calls)

     Called by c_bands:
     init_us_2    :      0.02s CPU      0.02s WALL (     228 calls)
     cegterg      :      2.33s CPU      2.36s WALL (     108 calls)

     Called by sum_band:

     Called by *egterg:
     h_psi        :      2.22s CPU      2.27s WALL (     383 calls)
     g_psi        :      0.02s CPU      0.02s WALL (     263 calls)
     cdiaghg      :      0.06s CPU      0.06s WALL (     371 calls)
     cegterg:over :      0.07s CPU      0.07s WALL (     263 calls)
     cegterg:upda :      0.07s CPU      0.06s WALL (     263 calls)
     cegterg:last :      0.03s CPU      0.02s WALL (     108 calls)

     Called by h_psi:
     h_psi:vloc   :      2.17s CPU      2.22s WALL (     383 calls)
     h_psi:vnl    :      0.04s CPU      0.05s WALL (     383 calls)
     add_vuspsi   :      0.02s CPU      0.03s WALL (     383 calls)

     General routines
     calbec       :      0.02s CPU      0.02s WALL (     383 calls)
     fft          :      0.02s CPU      0.02s WALL (      39 calls)
     fftw         :      2.34s CPU      2.39s WALL (    6480 calls)

     Parallel routines
     fft_scatter  :      0.09s CPU      0.09s WALL (    6519 calls)

     PWSCF        :     3.04s CPU         3.12s WALL


   This run was terminated on:  15: 3:32  23Mar2017            

=------------------------------------------------------------------------------=
   JOB DONE.
=------------------------------------------------------------------------------=
