
     Program PWSCF v.5.2.0 starts on 23Mar2017 at 15: 5:13 

     This program is part of the open-source Quantum ESPRESSO suite
     for quantum simulation of materials; please cite
         "P. Giannozzi et al., J. Phys.:Condens. Matter 21 395502 (2009);
          URL http://www.quantum-espresso.org", 
     in publications or presentations arising from this work. More details at
     http://www.quantum-espresso.org/quote

     Parallel version (MPI & OpenMP), running on       1 processor cores
     Number of MPI processes:                 1
     Threads/MPI process:                     1
     Waiting for input...
     Reading input from standard input

     Current dimensions of program PWSCF are:
     Max number of different atomic species (ntypx) = 10
     Max number of k-points (npk) =  40000
     Max angular momentum in pseudopotentials (lmaxx) =  3

     Atomic positions and unit cell read from directory:
     ./hBN.save/


     Subspace diagonalization in iterative solution of the eigenvalue problem:
     a serial algorithm will be used


     G-vector sticks info
     --------------------
     sticks:   dense  smooth     PW     G-vecs:    dense   smooth      PW
     Sum         253     253     85                 8029     8029    1553



     bravais-lattice index     =            4
     lattice parameter (alat)  =       4.7160  a.u.
     unit-cell volume          =     234.5353 (a.u.)^3
     number of atoms/cell      =            4
     number of atomic types    =            2
     number of electrons       =        16.00
     number of Kohn-Sham states=          100
     kinetic-energy cutoff     =      40.0000  Ry
     charge density cutoff     =     160.0000  Ry
     Exchange-correlation      =  SLA  PZ   NOGX NOGC ( 1  1  0  0 0 0)

     celldm(1)=   4.716000  celldm(2)=   0.000000  celldm(3)=   2.582000
     celldm(4)=   0.000000  celldm(5)=   0.000000  celldm(6)=   0.000000

     crystal axes: (cart. coord. in units of alat)
               a(1) = (   1.000000   0.000000   0.000000 )  
               a(2) = (  -0.500000   0.866025   0.000000 )  
               a(3) = (   0.000000   0.000000   2.582000 )  

     reciprocal axes: (cart. coord. in units 2 pi/alat)
               b(1) = (  1.000000  0.577350 -0.000000 )  
               b(2) = (  0.000000  1.154701  0.000000 )  
               b(3) = (  0.000000 -0.000000  0.387297 )  


     PseudoPot. # 1 for B  read from file:
     ./Pseudos/B.pz-vbc.UPF
     MD5 check sum: b59596b5d63edeea6a2b3a0beace49c5
     Pseudo is Norm-conserving, Zval =  3.0
     Generated by new atomic code, or converted to UPF format
     Using radial grid of  157 points,  1 beta functions with: 
                l(1) =   0

     PseudoPot. # 2 for N  read from file:
     ./Pseudos/N.pz-vbc.UPF
     MD5 check sum: f7a51f6f78412844d17f6e69b370b417
     Pseudo is Norm-conserving, Zval =  5.0
     Generated by new atomic code, or converted to UPF format
     Using radial grid of  161 points,  1 beta functions with: 
                l(1) =   0

     atomic species   valence    mass     pseudopotential
        B              3.00    10.00000     B ( 1.00)
        N              5.00    14.00000     N ( 1.00)

     12 Sym. Ops. (no inversion) found


                                    s                        frac. trans.

      isym =  1     identity                                     

 cryst.   s( 1) = (     1          0          0      )
                  (     0          1          0      )
                  (     0          0          1      )

 cart.    s( 1) = (  1.0000000  0.0000000  0.0000000 )
                  (  0.0000000  1.0000000  0.0000000 )
                  (  0.0000000  0.0000000  1.0000000 )


      isym =  2     180 deg rotation - cart. axis [0,1,0]        

 cryst.   s( 2) = (    -1          0          0      )
                  (     1          1          0      )
                  (     0          0         -1      )

 cart.    s( 2) = ( -1.0000000  0.0000000  0.0000000 )
                  (  0.0000000  1.0000000  0.0000000 )
                  (  0.0000000  0.0000000 -1.0000000 )


      isym =  3     120 deg rotation - cryst. axis [0,0,1]       

 cryst.   s( 3) = (     0          1          0      )
                  (    -1         -1          0      )
                  (     0          0          1      )

 cart.    s( 3) = ( -0.5000000 -0.8660254  0.0000000 )
                  (  0.8660254 -0.5000000  0.0000000 )
                  (  0.0000000  0.0000000  1.0000000 )


      isym =  4     120 deg rotation - cryst. axis [0,0,-1]      

 cryst.   s( 4) = (    -1         -1          0      )
                  (     1          0          0      )
                  (     0          0          1      )

 cart.    s( 4) = ( -0.5000000  0.8660254  0.0000000 )
                  ( -0.8660254 -0.5000000  0.0000000 )
                  (  0.0000000  0.0000000  1.0000000 )


      isym =  5     180 deg rotation - cryst. axis [1,-1,0]      

 cryst.   s( 5) = (     0         -1          0      )
                  (    -1          0          0      )
                  (     0          0         -1      )

 cart.    s( 5) = (  0.5000000 -0.8660254  0.0000000 )
                  ( -0.8660254 -0.5000000  0.0000000 )
                  (  0.0000000  0.0000000 -1.0000000 )


      isym =  6     180 deg rotation - cryst. axis [2,1,0]       

 cryst.   s( 6) = (     1          1          0      )
                  (     0         -1          0      )
                  (     0          0         -1      )

 cart.    s( 6) = (  0.5000000  0.8660254  0.0000000 )
                  (  0.8660254 -0.5000000  0.0000000 )
                  (  0.0000000  0.0000000 -1.0000000 )


      isym =  7     inv. 180 deg rotation - cart. axis [0,0,1]   

 cryst.   s( 7) = (     1          0          0      )
                  (     0          1          0      )
                  (     0          0         -1      )

 cart.    s( 7) = (  1.0000000  0.0000000  0.0000000 )
                  (  0.0000000  1.0000000  0.0000000 )
                  (  0.0000000  0.0000000 -1.0000000 )


      isym =  8     inv. 180 deg rotation - cart. axis [1,0,0]   

 cryst.   s( 8) = (    -1          0          0      )
                  (     1          1          0      )
                  (     0          0          1      )

 cart.    s( 8) = ( -1.0000000  0.0000000  0.0000000 )
                  (  0.0000000  1.0000000  0.0000000 )
                  (  0.0000000  0.0000000  1.0000000 )


      isym =  9     inv.  60 deg rotation - cryst. axis [0,0,1]  

 cryst.   s( 9) = (    -1         -1          0      )
                  (     1          0          0      )
                  (     0          0         -1      )

 cart.    s( 9) = ( -0.5000000  0.8660254  0.0000000 )
                  ( -0.8660254 -0.5000000  0.0000000 )
                  (  0.0000000  0.0000000 -1.0000000 )


      isym = 10     inv.  60 deg rotation - cryst. axis [0,0,-1] 

 cryst.   s(10) = (     0          1          0      )
                  (    -1         -1          0      )
                  (     0          0         -1      )

 cart.    s(10) = ( -0.5000000 -0.8660254  0.0000000 )
                  (  0.8660254 -0.5000000  0.0000000 )
                  (  0.0000000  0.0000000 -1.0000000 )


      isym = 11     inv. 180 deg rotation - cryst. axis [0,1,0]  

 cryst.   s(11) = (     1          1          0      )
                  (     0         -1          0      )
                  (     0          0          1      )

 cart.    s(11) = (  0.5000000  0.8660254  0.0000000 )
                  (  0.8660254 -0.5000000  0.0000000 )
                  (  0.0000000  0.0000000  1.0000000 )


      isym = 12     inv. 180 deg rotation - cryst. axis [1,1,0]  

 cryst.   s(12) = (     0         -1          0      )
                  (    -1          0          0      )
                  (     0          0          1      )

 cart.    s(12) = (  0.5000000 -0.8660254  0.0000000 )
                  ( -0.8660254 -0.5000000  0.0000000 )
                  (  0.0000000  0.0000000  1.0000000 )


     point group D_3h (-62m)
     there are  6 classes
     the character table:

       E     2C3   3C2   s_h   2S3   3s_v 
A'_1   1.00  1.00  1.00  1.00  1.00  1.00
A'_2   1.00  1.00 -1.00  1.00  1.00 -1.00
E'     2.00 -1.00  0.00  2.00 -1.00  0.00
A''1   1.00  1.00  1.00 -1.00 -1.00 -1.00
A''2   1.00  1.00 -1.00 -1.00 -1.00  1.00
E''    2.00 -1.00  0.00 -2.00  1.00  0.00

     the symmetry operations in each class and the name of the first element:

     E        1
          identity                                               
     2C3      3    4
          120 deg rotation - cryst. axis [0,0,1]                 
     3C2      2    6    5
          180 deg rotation - cart. axis [0,1,0]                  
     s_h      7
          inv. 180 deg rotation - cart. axis [0,0,1]             
     2S3      9   10
          inv.  60 deg rotation - cryst. axis [0,0,1]            
     3s_v     8   11   12
          inv. 180 deg rotation - cart. axis [1,0,0]             

   Cartesian axes

     site n.     atom                  positions (alat units)
         1           B   tau(   1) = (   0.5000001   0.2886751   0.0000000  )
         2           N   tau(   2) = (  -0.5000001  -0.2886751   0.0000000  )
         3           B   tau(   3) = (  -0.5000001  -0.2886751   1.2910000  )
         4           N   tau(   4) = (   0.5000001   0.2886751   1.2910000  )

   Crystallographic axes

     site n.     atom                  positions (cryst. coord.)
         1           B   tau(   1) = (  0.6666667  0.3333333  0.0000000  )
         2           N   tau(   2) = ( -0.6666667 -0.3333333  0.0000000  )
         3           B   tau(   3) = ( -0.6666667 -0.3333333  0.5000000  )
         4           N   tau(   4) = (  0.6666667  0.3333333  0.5000000  )

     number of k points=    14
                       cart. coord. in units 2pi/alat
        k(    1) = (   0.0000000   0.0000000   0.0000000), wk =   0.0277778
        k(    2) = (   0.0000000   0.0000000  -0.1936483), wk =   0.0277778
        k(    3) = (   0.0000000   0.1924501   0.0000000), wk =   0.1666667
        k(    4) = (   0.0000000   0.1924501  -0.1936483), wk =   0.1666667
        k(    5) = (   0.0000000   0.3849002   0.0000000), wk =   0.1666667
        k(    6) = (   0.0000000   0.3849002  -0.1936483), wk =   0.1666667
        k(    7) = (   0.0000000  -0.5773503   0.0000000), wk =   0.0833333
        k(    8) = (   0.0000000  -0.5773503  -0.1936483), wk =   0.0833333
        k(    9) = (   0.1666667   0.2886751   0.0000000), wk =   0.1666667
        k(   10) = (   0.1666667   0.2886751  -0.1936483), wk =   0.1666667
        k(   11) = (   0.1666667   0.4811252   0.0000000), wk =   0.3333333
        k(   12) = (   0.1666667   0.4811252  -0.1936483), wk =   0.3333333
        k(   13) = (   0.3333333   0.5773503   0.0000000), wk =   0.0555556
        k(   14) = (   0.3333333   0.5773503  -0.1936483), wk =   0.0555556

                       cryst. coord.
        k(    1) = (   0.0000000   0.0000000   0.0000000), wk =   0.0277778
        k(    2) = (   0.0000000   0.0000000  -0.5000000), wk =   0.0277778
        k(    3) = (   0.0000000   0.1666667   0.0000000), wk =   0.1666667
        k(    4) = (   0.0000000   0.1666667  -0.5000000), wk =   0.1666667
        k(    5) = (   0.0000000   0.3333333   0.0000000), wk =   0.1666667
        k(    6) = (   0.0000000   0.3333333  -0.5000000), wk =   0.1666667
        k(    7) = (   0.0000000  -0.5000000   0.0000000), wk =   0.0833333
        k(    8) = (   0.0000000  -0.5000000  -0.5000000), wk =   0.0833333
        k(    9) = (   0.1666667   0.1666667   0.0000000), wk =   0.1666667
        k(   10) = (   0.1666667   0.1666667  -0.5000000), wk =   0.1666667
        k(   11) = (   0.1666667   0.3333333   0.0000000), wk =   0.3333333
        k(   12) = (   0.1666667   0.3333333  -0.5000000), wk =   0.3333333
        k(   13) = (   0.3333333   0.3333333   0.0000000), wk =   0.0555556
        k(   14) = (   0.3333333   0.3333333  -0.5000000), wk =   0.0555556

     Dense  grid:     8029 G-vectors     FFT dimensions: (  20,  20,  50)

     Largest allocated arrays     est. size (Mb)     dimensions
        Kohn-Sham Wavefunctions         1.55 Mb     (    1016,  100)
        NL pseudopotentials             0.06 Mb     (    1016,    4)
        Each V/rho on FFT grid          0.31 Mb     (   20000)
        Each G-vector array             0.06 Mb     (    8029)
        G-vector shells                 0.00 Mb     (     470)
     Largest temporary arrays     est. size (Mb)     dimensions
        Auxiliary wavefunctions         6.20 Mb     (    1016,  400)
        Each subspace H/S matrix        2.44 Mb     (     400,  400)
        Each <psi_i|beta_j> matrix      0.01 Mb     (       4,  100)

     The potential is recalculated from file :
     ./hBN.save/charge-density.dat

     Starting wfc are   16 randomized atomic wfcs +   84 random wfc

     Band Structure Calculation
     Davidson diagonalization with overlap

     Computing kpt #:     1
     total cpu time spent up to now is        1.5 secs

     Computing kpt #:     2
     total cpu time spent up to now is        2.7 secs

     Computing kpt #:     3
     total cpu time spent up to now is        4.2 secs

     Computing kpt #:     4
     total cpu time spent up to now is        5.5 secs

     Computing kpt #:     5
     total cpu time spent up to now is        6.9 secs

     Computing kpt #:     6
     total cpu time spent up to now is        8.3 secs

     Computing kpt #:     7
     total cpu time spent up to now is        9.5 secs

     Computing kpt #:     8
     total cpu time spent up to now is       10.8 secs

     Computing kpt #:     9
     total cpu time spent up to now is       12.2 secs

     Computing kpt #:    10
     total cpu time spent up to now is       13.5 secs

     Computing kpt #:    11
     total cpu time spent up to now is       14.9 secs

     Computing kpt #:    12
     total cpu time spent up to now is       16.3 secs

     Computing kpt #:    13
     total cpu time spent up to now is       17.6 secs

     Computing kpt #:    14
     total cpu time spent up to now is       19.0 secs

     ethr =  5.00E-06,  avg # of iterations =  9.5

     total cpu time spent up to now is       19.0 secs

     End of band structure calculation

          k = 0.0000 0.0000 0.0000 (   997 PWs)   bands (ev):

   -13.2132 -12.8371  -1.5746   0.9977   3.8111   3.8111   3.8144   3.8144
     9.9432  15.8750  16.4725  16.4725  16.6658  16.6658  17.1644  18.3422
    19.7598  22.1368  27.9817  29.7581  30.7454  33.0042  33.0042  34.9334
    35.7939  35.7939  36.7858  37.5050  37.5050  40.2112  40.2113  41.3780
    41.3780  41.9146  41.9146  44.0035  45.6797  46.1490  49.6027  51.1766
    51.6604  51.6604  52.8346  52.8346  54.3015  55.9370  55.9370  58.9699
    58.9700  59.3983  59.7788  59.7788  63.1701  64.8200  64.8200  66.1400
    76.8377  76.8377  77.1750  77.2639  78.4505  78.4505  79.3340  79.3340
    79.8381  80.1702  80.1702  80.6385  83.9479  83.9479  84.4821  85.2003
    85.5597  85.5597  85.6403  91.7852  92.7072  94.0174  94.7576  96.3481
    96.3481  96.6983  96.6983  99.0408  99.0408  99.3923  99.7673  99.8800
    99.8800 100.8282 100.8282 103.6159 103.6159 104.4837 104.4837 105.8593
   106.4229 107.2587 107.2587 107.7062

     occupation numbers 
     1.0000   1.0000   1.0000   1.0000   1.0000   1.0000   1.0000   1.0000
     0.0000   0.0000   0.0000   0.0000   0.0000   0.0000   0.0000   0.0000
     0.0000   0.0000   0.0000   0.0000   0.0000   0.0000   0.0000   0.0000
     0.0000   0.0000   0.0000   0.0000   0.0000   0.0000   0.0000   0.0000
     0.0000   0.0000   0.0000   0.0000   0.0000   0.0000   0.0000   0.0000
     0.0000   0.0000   0.0000   0.0000   0.0000   0.0000   0.0000   0.0000
     0.0000   0.0000   0.0000   0.0000   0.0000   0.0000   0.0000   0.0000
     0.0000   0.0000   0.0000   0.0000   0.0000   0.0000   0.0000   0.0000
     0.0000   0.0000   0.0000   0.0000   0.0000   0.0000   0.0000   0.0000
     0.0000   0.0000   0.0000   0.0000   0.0000   0.0000   0.0000   0.0000
     0.0000   0.0000   0.0000   0.0000   0.0000   0.0000   0.0000   0.0000
     0.0000   0.0000   0.0000   0.0000   0.0000   0.0000   0.0000   0.0000
     0.0000   0.0000   0.0000   0.0000

          k = 0.0000 0.0000-0.1936 (  1008 PWs)   bands (ev):

   -13.0337 -13.0337  -0.4456  -0.4455   3.7753   3.7753   3.7753   3.7753
    12.6783  12.6783  16.5619  16.5619  16.5619  16.5619  17.9817  17.9817
    20.5900  20.5900  29.8300  29.8300  32.2448  32.2448  34.4268  34.4268
    34.4268  34.4268  37.3516  37.3516  37.3516  37.3516  40.4063  40.4063
    44.7836  44.7836  45.4455  45.4455  45.4455  45.4455  48.0091  48.0091
    48.0091  48.0091  50.0073  50.0073  57.9805  57.9805  57.9805  57.9805
    61.2578  61.2578  63.5978  63.5978  66.2815  66.2815  66.2815  66.2815
    70.9930  70.9930  72.4349  72.4349  72.4349  72.4349  78.3805  78.3805
    78.3805  78.3805  85.4105  85.4105  86.0445  86.0445  88.4533  88.4533
    91.0671  91.0671  92.0130  92.0130  92.0130  92.0130  96.8121  96.8121
    96.8121  96.8121 100.0442 100.0442 100.0442 100.0442 100.6087 100.6087
   100.6087 100.6087 100.6866 100.6866 101.6271 101.6271 102.0818 102.0818
   102.0818 102.0818 103.9045 103.9045

     occupation numbers 
     1.0000   1.0000   1.0000   1.0000   1.0000   1.0000   1.0000   1.0000
     0.0000   0.0000   0.0000   0.0000   0.0000   0.0000   0.0000   0.0000
     0.0000   0.0000   0.0000   0.0000   0.0000   0.0000   0.0000   0.0000
     0.0000   0.0000   0.0000   0.0000   0.0000   0.0000   0.0000   0.0000
     0.0000   0.0000   0.0000   0.0000   0.0000   0.0000   0.0000   0.0000
     0.0000   0.0000   0.0000   0.0000   0.0000   0.0000   0.0000   0.0000
     0.0000   0.0000   0.0000   0.0000   0.0000   0.0000   0.0000   0.0000
     0.0000   0.0000   0.0000   0.0000   0.0000   0.0000   0.0000   0.0000
     0.0000   0.0000   0.0000   0.0000   0.0000   0.0000   0.0000   0.0000
     0.0000   0.0000   0.0000   0.0000   0.0000   0.0000   0.0000   0.0000
     0.0000   0.0000   0.0000   0.0000   0.0000   0.0000   0.0000   0.0000
     0.0000   0.0000   0.0000   0.0000   0.0000   0.0000   0.0000   0.0000
     0.0000   0.0000   0.0000   0.0000

          k = 0.0000 0.1925 0.0000 (   996 PWs)   bands (ev):

   -12.6709 -12.3212  -0.8043   1.6854   1.7132   1.7901   2.8502   2.8512
    10.8861  15.2799  15.8152  16.3230  16.4092  18.7830  18.9459  19.0173
    21.1678  21.5959  28.2480  28.6189  29.7676  30.7539  31.6569  32.1433
    34.7603  34.8072  35.7617  36.5791  38.7750  40.3666  40.7758  43.6172
    45.7528  45.8001  46.1156  46.3754  47.1452  47.9807  49.4003  50.0294
    50.4826  52.1736  53.1152  53.3288  53.6430  53.6863  56.9054  56.9546
    58.4867  59.2996  63.1435  63.5788  64.3874  65.4134  67.5605  71.2722
    71.8190  72.6932  72.8864  73.2133  76.4691  77.1482  77.2832  78.2313
    79.9470  80.2747  81.6161  82.8017  82.9679  83.6620  84.4311  87.2836
    87.3182  87.4875  88.3374  89.2162  90.1613  90.9379  91.0213  91.2701
    92.5004  93.7585  94.0747  94.6757  95.9846  97.0291  97.4810  98.1490
    98.3168  98.4862 101.2819 101.9163 103.2359 103.3370 104.9929 105.3214
   105.6845 106.5349 106.7327 108.4113

     occupation numbers 
     1.0000   1.0000   1.0000   1.0000   1.0000   1.0000   1.0000   1.0000
     0.0000   0.0000   0.0000   0.0000   0.0000   0.0000   0.0000   0.0000
     0.0000   0.0000   0.0000   0.0000   0.0000   0.0000   0.0000   0.0000
     0.0000   0.0000   0.0000   0.0000   0.0000   0.0000   0.0000   0.0000
     0.0000   0.0000   0.0000   0.0000   0.0000   0.0000   0.0000   0.0000
     0.0000   0.0000   0.0000   0.0000   0.0000   0.0000   0.0000   0.0000
     0.0000   0.0000   0.0000   0.0000   0.0000   0.0000   0.0000   0.0000
     0.0000   0.0000   0.0000   0.0000   0.0000   0.0000   0.0000   0.0000
     0.0000   0.0000   0.0000   0.0000   0.0000   0.0000   0.0000   0.0000
     0.0000   0.0000   0.0000   0.0000   0.0000   0.0000   0.0000   0.0000
     0.0000   0.0000   0.0000   0.0000   0.0000   0.0000   0.0000   0.0000
     0.0000   0.0000   0.0000   0.0000   0.0000   0.0000   0.0000   0.0000
     0.0000   0.0000   0.0000   0.0000

          k = 0.0000 0.1925-0.1936 (  1004 PWs)   bands (ev):

   -12.5032 -12.5032   0.2544   0.2544   1.7647   1.7647   2.8529   2.8529
    13.2551  13.2551  16.0918  16.0918  17.2174  17.2174  18.8723  18.8723
    21.4484  21.4484  28.3165  28.3165  31.2822  31.2822  31.7372  31.7372
    33.8760  33.8760  37.9743  37.9743  40.2588  40.2588  41.5319  41.5319
    43.2057  43.2057  44.9052  44.9052  47.8683  47.8683  50.1486  50.1486
    50.9243  50.9243  52.2508  52.2508  57.4657  57.4658  57.7983  57.7983
    61.1832  61.1832  63.7064  63.7064  63.9528  63.9528  65.6031  65.6031
    70.7979  70.7979  72.0501  72.0501  76.5177  76.5177  79.0096  79.0096
    81.3845  81.3845  82.3806  82.3806  84.0521  84.0521  85.2121  85.2121
    87.0414  87.0415  88.9830  88.9831  89.1605  89.1605  93.1494  93.1494
    94.2279  94.2279  97.2941  97.2941  97.3585  97.3585  99.0321  99.0321
    99.2194  99.2194 100.4071 100.4071 101.2505 101.2505 102.0882 102.0882
   104.5837 104.5838 106.6663 106.6663

     occupation numbers 
     1.0000   1.0000   1.0000   1.0000   1.0000   1.0000   1.0000   1.0000
     0.0000   0.0000   0.0000   0.0000   0.0000   0.0000   0.0000   0.0000
     0.0000   0.0000   0.0000   0.0000   0.0000   0.0000   0.0000   0.0000
     0.0000   0.0000   0.0000   0.0000   0.0000   0.0000   0.0000   0.0000
     0.0000   0.0000   0.0000   0.0000   0.0000   0.0000   0.0000   0.0000
     0.0000   0.0000   0.0000   0.0000   0.0000   0.0000   0.0000   0.0000
     0.0000   0.0000   0.0000   0.0000   0.0000   0.0000   0.0000   0.0000
     0.0000   0.0000   0.0000   0.0000   0.0000   0.0000   0.0000   0.0000
     0.0000   0.0000   0.0000   0.0000   0.0000   0.0000   0.0000   0.0000
     0.0000   0.0000   0.0000   0.0000   0.0000   0.0000   0.0000   0.0000
     0.0000   0.0000   0.0000   0.0000   0.0000   0.0000   0.0000   0.0000
     0.0000   0.0000   0.0000   0.0000   0.0000   0.0000   0.0000   0.0000
     0.0000   0.0000   0.0000   0.0000

          k = 0.0000 0.3849 0.0000 (  1004 PWs)   bands (ev):

   -11.2136 -10.9503  -1.9902  -1.8840   1.3337   1.4001   1.4726   3.4859
    11.7788  12.9291  12.9458  15.0179  16.3801  20.3374  20.8323  23.8403
    24.0218  24.7819  25.0175  26.5756  27.1761  28.5121  31.5289  32.3248
    34.0396  34.1889  34.8523  35.7343  38.5369  41.6879  42.3963  44.4639
    44.8965  46.9639  48.1671  48.3281  49.3619  50.1586  51.1097  51.1396
    51.2120  53.4264  54.1564  56.1830  56.2448  57.6489  58.7829  59.2440
    63.7370  65.0511  65.7147  66.2854  66.9161  67.3111  67.5327  68.8051
    69.4330  70.1075  72.0204  72.4033  72.8191  73.7600  74.8702  75.4735
    75.9716  76.7936  76.8532  76.9652  79.1975  79.8724  82.0308  83.5630
    83.9495  85.6324  86.9731  87.0201  88.6702  89.1034  89.4145  90.0695
    90.0764  93.1448  93.1902  93.8700  94.1125  95.2986  95.6291  96.1453
    97.1827  97.3766 100.2228 100.8619 101.3765 101.3783 101.9067 103.3071
   105.3215 105.6644 107.0312 107.1183

     occupation numbers 
     1.0000   1.0000   1.0000   1.0000   1.0000   1.0000   1.0000   1.0000
     0.0000   0.0000   0.0000   0.0000   0.0000   0.0000   0.0000   0.0000
     0.0000   0.0000   0.0000   0.0000   0.0000   0.0000   0.0000   0.0000
     0.0000   0.0000   0.0000   0.0000   0.0000   0.0000   0.0000   0.0000
     0.0000   0.0000   0.0000   0.0000   0.0000   0.0000   0.0000   0.0000
     0.0000   0.0000   0.0000   0.0000   0.0000   0.0000   0.0000   0.0000
     0.0000   0.0000   0.0000   0.0000   0.0000   0.0000   0.0000   0.0000
     0.0000   0.0000   0.0000   0.0000   0.0000   0.0000   0.0000   0.0000
     0.0000   0.0000   0.0000   0.0000   0.0000   0.0000   0.0000   0.0000
     0.0000   0.0000   0.0000   0.0000   0.0000   0.0000   0.0000   0.0000
     0.0000   0.0000   0.0000   0.0000   0.0000   0.0000   0.0000   0.0000
     0.0000   0.0000   0.0000   0.0000   0.0000   0.0000   0.0000   0.0000
     0.0000   0.0000   0.0000   0.0000

          k = 0.0000 0.3849-0.1936 (   998 PWs)   bands (ev):

   -11.0839 -11.0839  -1.9490  -1.9490   1.4650   1.4651   2.3188   2.3189
    12.0559  12.0559  14.8152  14.8153  17.3471  17.3471  23.1009  23.1010
    23.9030  23.9030  25.2130  25.2130  28.7525  28.7525  31.1771  31.1771
    34.4092  34.4093  37.8635  37.8635  39.6906  39.6906  40.7394  40.7394
    46.4530  46.4530  47.2508  47.2508  49.4787  49.4787  50.4837  50.4837
    52.7248  52.7248  57.4837  57.4837  60.3580  60.3580  60.6142  60.6142
    61.6847  61.6847  62.1583  62.1583  65.7664  65.7664  69.9915  69.9915
    70.1525  70.1525  71.6740  71.6740  72.6528  72.6528  74.6219  74.6219
    75.7403  75.7403  79.8292  79.8292  82.3009  82.3009  83.0095  83.0095
    84.4885  84.4885  86.0123  86.0123  86.1053  86.1053  89.8618  89.8618
    91.8171  91.8171  92.9879  92.9879  93.2074  93.2074  95.4657  95.4657
    99.4990  99.4990 101.6588 101.6588 102.6961 102.6961 104.1409 104.1409
   104.8549 104.8549 105.5660 105.5660

     occupation numbers 
     1.0000   1.0000   1.0000   1.0000   1.0000   1.0000   1.0000   1.0000
     0.0000   0.0000   0.0000   0.0000   0.0000   0.0000   0.0000   0.0000
     0.0000   0.0000   0.0000   0.0000   0.0000   0.0000   0.0000   0.0000
     0.0000   0.0000   0.0000   0.0000   0.0000   0.0000   0.0000   0.0000
     0.0000   0.0000   0.0000   0.0000   0.0000   0.0000   0.0000   0.0000
     0.0000   0.0000   0.0000   0.0000   0.0000   0.0000   0.0000   0.0000
     0.0000   0.0000   0.0000   0.0000   0.0000   0.0000   0.0000   0.0000
     0.0000   0.0000   0.0000   0.0000   0.0000   0.0000   0.0000   0.0000
     0.0000   0.0000   0.0000   0.0000   0.0000   0.0000   0.0000   0.0000
     0.0000   0.0000   0.0000   0.0000   0.0000   0.0000   0.0000   0.0000
     0.0000   0.0000   0.0000   0.0000   0.0000   0.0000   0.0000   0.0000
     0.0000   0.0000   0.0000   0.0000   0.0000   0.0000   0.0000   0.0000
     0.0000   0.0000   0.0000   0.0000

          k = 0.0000-0.5774 0.0000 (  1016 PWs)   bands (ev):

   -10.0065  -9.9171  -3.9985  -3.9190   0.8024   0.9070   3.4249   4.6990
     8.9888  10.7502  14.3342  14.7323  17.5473  18.6492  20.1405  24.2779
    26.2999  26.5732  27.0980  27.1681  27.4647  27.8825  31.4693  32.7059
    33.1148  33.2188  33.5584  35.5629  37.9644  40.0356  41.4218  42.0318
    42.9886  46.3027  49.2460  49.3218  51.0256  51.2790  54.7406  55.2867
    56.1773  58.0325  58.2139  58.2167  59.3967  59.5233  59.8408  61.5748
    61.6574  62.5504  63.1506  63.4748  64.4036  65.1428  65.9351  67.9537
    69.6303  70.1033  71.6712  72.7672  72.7881  73.7622  74.1335  74.5305
    76.8932  76.9681  78.8404  79.4381  79.9130  80.9403  80.9875  81.0619
    82.0868  82.8758  83.7476  84.3325  84.8472  84.9553  85.7357  86.7097
    87.1750  87.2215  91.0789  91.9378  94.3950  94.3959  96.0503  96.4910
    97.5121  98.4188 100.2637 102.1253 102.4535 102.7869 104.0594 104.1784
   104.3724 105.0403 105.4184 105.6537

     occupation numbers 
     1.0000   1.0000   1.0000   1.0000   1.0000   1.0000   1.0000   1.0000
     0.0000   0.0000   0.0000   0.0000   0.0000   0.0000   0.0000   0.0000
     0.0000   0.0000   0.0000   0.0000   0.0000   0.0000   0.0000   0.0000
     0.0000   0.0000   0.0000   0.0000   0.0000   0.0000   0.0000   0.0000
     0.0000   0.0000   0.0000   0.0000   0.0000   0.0000   0.0000   0.0000
     0.0000   0.0000   0.0000   0.0000   0.0000   0.0000   0.0000   0.0000
     0.0000   0.0000   0.0000   0.0000   0.0000   0.0000   0.0000   0.0000
     0.0000   0.0000   0.0000   0.0000   0.0000   0.0000   0.0000   0.0000
     0.0000   0.0000   0.0000   0.0000   0.0000   0.0000   0.0000   0.0000
     0.0000   0.0000   0.0000   0.0000   0.0000   0.0000   0.0000   0.0000
     0.0000   0.0000   0.0000   0.0000   0.0000   0.0000   0.0000   0.0000
     0.0000   0.0000   0.0000   0.0000   0.0000   0.0000   0.0000   0.0000
     0.0000   0.0000   0.0000   0.0000

          k = 0.0000-0.5774-0.1936 (   992 PWs)   bands (ev):

    -9.9554  -9.9554  -3.9536  -3.9536   0.8766   0.8766   4.1464   4.1465
     9.5523   9.5523  14.7518  14.7518  18.6184  18.6184  21.8452  21.8452
    25.5489  25.5489  27.0446  27.0446  28.2511  28.2511  30.6693  30.6693
    33.8252  33.8252  38.0238  38.0238  38.4635  38.4635  41.1204  41.1204
    43.6892  43.6892  46.5911  46.5911  53.7692  53.7692  55.5790  55.5790
    56.0674  56.0674  58.5079  58.5079  59.4806  59.4806  60.5639  60.5639
    62.1312  62.1312  63.2402  63.2403  66.7308  66.7308  68.5724  68.5724
    69.1534  69.1534  72.1769  72.1769  72.8654  72.8654  72.8770  72.8770
    75.8633  75.8633  75.9638  75.9638  77.4748  77.4748  83.4800  83.4800
    84.0180  84.0180  86.6601  86.6601  87.5662  87.5662  89.0694  89.0694
    89.5326  89.5326  91.4528  91.4528  91.9755  91.9755  92.7215  92.7215
    94.0227  94.0227  97.2019  97.2019 101.0399 101.0399 105.6799 105.6799
   105.7481 105.7481 106.9705 106.9705

     occupation numbers 
     1.0000   1.0000   1.0000   1.0000   1.0000   1.0000   1.0000   1.0000
     0.0000   0.0000   0.0000   0.0000   0.0000   0.0000   0.0000   0.0000
     0.0000   0.0000   0.0000   0.0000   0.0000   0.0000   0.0000   0.0000
     0.0000   0.0000   0.0000   0.0000   0.0000   0.0000   0.0000   0.0000
     0.0000   0.0000   0.0000   0.0000   0.0000   0.0000   0.0000   0.0000
     0.0000   0.0000   0.0000   0.0000   0.0000   0.0000   0.0000   0.0000
     0.0000   0.0000   0.0000   0.0000   0.0000   0.0000   0.0000   0.0000
     0.0000   0.0000   0.0000   0.0000   0.0000   0.0000   0.0000   0.0000
     0.0000   0.0000   0.0000   0.0000   0.0000   0.0000   0.0000   0.0000
     0.0000   0.0000   0.0000   0.0000   0.0000   0.0000   0.0000   0.0000
     0.0000   0.0000   0.0000   0.0000   0.0000   0.0000   0.0000   0.0000
     0.0000   0.0000   0.0000   0.0000   0.0000   0.0000   0.0000   0.0000
     0.0000   0.0000   0.0000   0.0000

          k = 0.1667 0.2887 0.0000 (  1011 PWs)   bands (ev):

   -11.6580 -11.3671  -0.5901  -0.5505   0.6417   1.0498   1.1414   2.9338
    12.5352  13.4055  13.6739  17.0465  17.4833  18.5270  19.7303  20.1310
    23.3113  24.6357  25.0909  26.7477  28.0475  29.2814  30.2948  32.4492
    34.8214  35.6693  36.9303  37.2710  38.4884  40.3992  43.2862  43.4659
    44.2955  44.8429  46.8405  47.1901  48.9110  49.7008  49.9032  51.4003
    52.5410  52.7629  54.2151  55.4176  57.6270  58.0683  59.5250  60.3763
    60.9277  61.1396  61.7578  62.2778  66.9361  66.9882  67.7166  68.8607
    69.5965  70.0078  72.4751  72.6016  72.8765  74.4577  74.9682  77.2291
    78.4789  80.4015  80.9655  81.2855  81.4555  81.6929  84.1406  84.3250
    84.3868  85.4573  85.8871  85.9926  88.9883  89.0823  89.2175  89.6173
    90.6057  90.7362  91.0715  92.1234  94.3912  97.1614  98.4377  98.7213
    98.7762  99.7068 100.4653 100.8289 101.3510 102.2857 102.4703 103.4966
   104.5810 104.7294 105.5858 106.2426

     occupation numbers 
     1.0000   1.0000   1.0000   1.0000   1.0000   1.0000   1.0000   1.0000
     0.0000   0.0000   0.0000   0.0000   0.0000   0.0000   0.0000   0.0000
     0.0000   0.0000   0.0000   0.0000   0.0000   0.0000   0.0000   0.0000
     0.0000   0.0000   0.0000   0.0000   0.0000   0.0000   0.0000   0.0000
     0.0000   0.0000   0.0000   0.0000   0.0000   0.0000   0.0000   0.0000
     0.0000   0.0000   0.0000   0.0000   0.0000   0.0000   0.0000   0.0000
     0.0000   0.0000   0.0000   0.0000   0.0000   0.0000   0.0000   0.0000
     0.0000   0.0000   0.0000   0.0000   0.0000   0.0000   0.0000   0.0000
     0.0000   0.0000   0.0000   0.0000   0.0000   0.0000   0.0000   0.0000
     0.0000   0.0000   0.0000   0.0000   0.0000   0.0000   0.0000   0.0000
     0.0000   0.0000   0.0000   0.0000   0.0000   0.0000   0.0000   0.0000
     0.0000   0.0000   0.0000   0.0000   0.0000   0.0000   0.0000   0.0000
     0.0000   0.0000   0.0000   0.0000

          k = 0.1667 0.2887-0.1936 (  1006 PWs)   bands (ev):

   -11.5149 -11.5149  -0.5843  -0.5843   1.0784   1.0784   1.7097   1.7097
    13.0639  13.0639  15.8888  15.8889  17.3354  17.3354  19.9999  19.9999
    23.9735  23.9735  24.7176  24.7176  29.6007  29.6007  32.8576  32.8576
    35.6709  35.6709  37.2890  37.2890  38.5578  38.5578  40.3311  40.3311
    44.7571  44.7571  47.7106  47.7106  50.8139  50.8139  51.8739  51.8739
    53.7262  53.7262  54.8555  54.8555  55.5236  55.5236  57.0271  57.0271
    62.4396  62.4396  64.7732  64.7732  67.5589  67.5589  68.3900  68.3900
    69.8336  69.8336  70.2962  70.2962  72.0018  72.0018  77.5017  77.5017
    79.1727  79.1727  80.5508  80.5508  81.4228  81.4228  85.5331  85.5331
    85.9685  85.9685  86.6264  86.6264  87.5458  87.5458  88.8730  88.8730
    89.7324  89.7324  94.2784  94.2784  95.9695  95.9695  96.7200  96.7200
    99.0250  99.0250 100.2524 100.2524 102.2154 102.2154 102.5059 102.5059
   104.5919 104.5919 105.5473 105.5473

     occupation numbers 
     1.0000   1.0000   1.0000   1.0000   1.0000   1.0000   1.0000   1.0000
     0.0000   0.0000   0.0000   0.0000   0.0000   0.0000   0.0000   0.0000
     0.0000   0.0000   0.0000   0.0000   0.0000   0.0000   0.0000   0.0000
     0.0000   0.0000   0.0000   0.0000   0.0000   0.0000   0.0000   0.0000
     0.0000   0.0000   0.0000   0.0000   0.0000   0.0000   0.0000   0.0000
     0.0000   0.0000   0.0000   0.0000   0.0000   0.0000   0.0000   0.0000
     0.0000   0.0000   0.0000   0.0000   0.0000   0.0000   0.0000   0.0000
     0.0000   0.0000   0.0000   0.0000   0.0000   0.0000   0.0000   0.0000
     0.0000   0.0000   0.0000   0.0000   0.0000   0.0000   0.0000   0.0000
     0.0000   0.0000   0.0000   0.0000   0.0000   0.0000   0.0000   0.0000
     0.0000   0.0000   0.0000   0.0000   0.0000   0.0000   0.0000   0.0000
     0.0000   0.0000   0.0000   0.0000   0.0000   0.0000   0.0000   0.0000
     0.0000   0.0000   0.0000   0.0000

          k = 0.1667 0.4811 0.0000 (  1004 PWs)   bands (ev):

   -10.1180  -9.9611  -3.1929  -3.0941  -0.3561  -0.2781   3.1479   4.7160
     9.9674  11.1585  15.2625  16.9545  17.5797  18.1106  19.8502  23.3348
    23.6150  25.2490  25.4121  26.5052  27.5742  28.2997  29.4331  32.7302
    33.6293  36.2327  36.4848  36.8774  39.5371  40.6435  42.1716  43.3145
    43.3391  45.5896  47.4906  48.1134  50.3522  51.3526  53.8122  53.8124
    55.5323  55.5912  56.5265  56.8644  58.5640  59.7868  60.7803  62.3155
    63.3299  63.9034  65.1211  65.3178  65.4370  65.9353  66.6004  67.1813
    68.2310  69.2168  70.6362  70.8495  71.8053  72.8508  74.7337  75.4384
    75.5231  76.1863  76.3771  79.6296  80.0240  80.8386  81.8824  82.7665
    83.3369  84.5373  85.9385  86.8236  87.9280  88.0868  88.2417  88.8775
    88.9116  90.6763  91.5867  92.3017  93.9195  94.1260  94.1723  94.2808
    94.8695  95.0605  96.7708  97.8578  98.8055  99.1000 100.1069 101.1080
   101.9491 102.1259 105.9071 105.9203

     occupation numbers 
     1.0000   1.0000   1.0000   1.0000   1.0000   1.0000   1.0000   1.0000
     0.0000   0.0000   0.0000   0.0000   0.0000   0.0000   0.0000   0.0000
     0.0000   0.0000   0.0000   0.0000   0.0000   0.0000   0.0000   0.0000
     0.0000   0.0000   0.0000   0.0000   0.0000   0.0000   0.0000   0.0000
     0.0000   0.0000   0.0000   0.0000   0.0000   0.0000   0.0000   0.0000
     0.0000   0.0000   0.0000   0.0000   0.0000   0.0000   0.0000   0.0000
     0.0000   0.0000   0.0000   0.0000   0.0000   0.0000   0.0000   0.0000
     0.0000   0.0000   0.0000   0.0000   0.0000   0.0000   0.0000   0.0000
     0.0000   0.0000   0.0000   0.0000   0.0000   0.0000   0.0000   0.0000
     0.0000   0.0000   0.0000   0.0000   0.0000   0.0000   0.0000   0.0000
     0.0000   0.0000   0.0000   0.0000   0.0000   0.0000   0.0000   0.0000
     0.0000   0.0000   0.0000   0.0000   0.0000   0.0000   0.0000   0.0000
     0.0000   0.0000   0.0000   0.0000

          k = 0.1667 0.4811-0.1936 (  1002 PWs)   bands (ev):

   -10.0393 -10.0393  -3.1527  -3.1526  -0.3198  -0.3198   3.9378   3.9378
    10.3343  10.3343  16.6902  16.6902  17.8846  17.8846  21.1633  21.1633
    23.4290  23.4290  26.0595  26.0595  28.4983  28.4983  32.0932  32.0932
    34.6118  34.6118  35.9707  35.9707  39.6151  39.6151  42.8606  42.8606
    46.4939  46.4939  48.5951  48.5951  49.7724  49.7724  52.6021  52.6021
    54.0329  54.0329  57.5000  57.5000  58.7040  58.7040  61.4473  61.4473
    63.4760  63.4760  64.8237  64.8237  66.8612  66.8612  68.8025  68.8025
    69.1047  69.1047  71.6342  71.6342  73.1948  73.1948  74.2391  74.2391
    75.4314  75.4314  77.5959  77.5959  80.6879  80.6879  81.7950  81.7950
    82.8523  82.8523  84.1676  84.1676  86.0564  86.0564  87.6269  87.6269
    90.5594  90.5594  92.2101  92.2101  94.4320  94.4320  95.5660  95.5660
    97.0970  97.0970  97.5674  97.5674  99.8101  99.8101 102.5328 102.5328
   103.3102 103.3102 104.4548 104.4548

     occupation numbers 
     1.0000   1.0000   1.0000   1.0000   1.0000   1.0000   1.0000   1.0000
     0.0000   0.0000   0.0000   0.0000   0.0000   0.0000   0.0000   0.0000
     0.0000   0.0000   0.0000   0.0000   0.0000   0.0000   0.0000   0.0000
     0.0000   0.0000   0.0000   0.0000   0.0000   0.0000   0.0000   0.0000
     0.0000   0.0000   0.0000   0.0000   0.0000   0.0000   0.0000   0.0000
     0.0000   0.0000   0.0000   0.0000   0.0000   0.0000   0.0000   0.0000
     0.0000   0.0000   0.0000   0.0000   0.0000   0.0000   0.0000   0.0000
     0.0000   0.0000   0.0000   0.0000   0.0000   0.0000   0.0000   0.0000
     0.0000   0.0000   0.0000   0.0000   0.0000   0.0000   0.0000   0.0000
     0.0000   0.0000   0.0000   0.0000   0.0000   0.0000   0.0000   0.0000
     0.0000   0.0000   0.0000   0.0000   0.0000   0.0000   0.0000   0.0000
     0.0000   0.0000   0.0000   0.0000   0.0000   0.0000   0.0000   0.0000
     0.0000   0.0000   0.0000   0.0000

          k = 0.3333 0.5774 0.0000 (  1005 PWs)   bands (ev):

    -9.3739  -9.3739  -3.2145  -2.9432  -2.1101  -2.1101   4.9768   4.9769
     9.7877   9.7878  15.1999  18.2609  18.2609  18.8210  21.8077  23.0966
    23.0967  23.1373  25.0763  25.0763  27.0015  27.0015  27.7218  33.3906
    33.4473  37.7269  37.7269  38.8821  40.3351  41.8112  41.8112  44.1897
    44.1897  46.0529  48.6204  48.6204  49.9700  51.9154  53.6499  53.6499
    55.0368  55.0368  56.1841  56.1841  60.8459  61.2031  61.2031  61.6653
    61.6653  62.9823  62.9823  62.9991  65.1730  66.6583  66.7754  67.1924
    67.1924  68.3549  73.6584  73.6584  74.0021  75.1027  75.1027  76.5507
    76.5507  77.3812  77.8324  77.8324  78.8301  81.7320  82.8552  82.8552
    83.6720  83.6720  84.5453  84.5454  84.9819  85.9519  86.7348  86.7348
    89.8237  90.7875  90.7875  91.6154  91.6154  93.1280  93.6664  94.0626
    94.0626  95.6967  96.2602  96.6033  96.6033  96.9838  97.4960  97.4960
   102.3009 102.3009 102.3616 103.2367

     occupation numbers 
     1.0000   1.0000   1.0000   1.0000   1.0000   1.0000   1.0000   1.0000
     0.0000   0.0000   0.0000   0.0000   0.0000   0.0000   0.0000   0.0000
     0.0000   0.0000   0.0000   0.0000   0.0000   0.0000   0.0000   0.0000
     0.0000   0.0000   0.0000   0.0000   0.0000   0.0000   0.0000   0.0000
     0.0000   0.0000   0.0000   0.0000   0.0000   0.0000   0.0000   0.0000
     0.0000   0.0000   0.0000   0.0000   0.0000   0.0000   0.0000   0.0000
     0.0000   0.0000   0.0000   0.0000   0.0000   0.0000   0.0000   0.0000
     0.0000   0.0000   0.0000   0.0000   0.0000   0.0000   0.0000   0.0000
     0.0000   0.0000   0.0000   0.0000   0.0000   0.0000   0.0000   0.0000
     0.0000   0.0000   0.0000   0.0000   0.0000   0.0000   0.0000   0.0000
     0.0000   0.0000   0.0000   0.0000   0.0000   0.0000   0.0000   0.0000
     0.0000   0.0000   0.0000   0.0000   0.0000   0.0000   0.0000   0.0000
     0.0000   0.0000   0.0000   0.0000

          k = 0.3333 0.5774-0.1936 (  1002 PWs)   bands (ev):

    -9.3738  -9.3738  -3.0682  -3.0682  -2.1163  -2.1162   5.1108   5.1108
     9.4632   9.4633  16.5601  16.5601  19.1835  19.1835  22.8089  22.8089
    22.9523  22.9523  24.1475  24.1475  26.8742  26.8742  31.4462  31.4462
    33.4220  33.4220  39.1995  39.1995  41.1847  41.1847  45.8598  45.8598
    46.1766  46.1766  46.6674  46.6674  51.8393  51.8393  51.9774  51.9774
    54.4858  54.4858  56.9583  56.9583  58.2750  58.2750  58.3983  58.3983
    62.8843  62.8844  64.0577  64.0577  67.4483  67.4483  68.3093  68.3093
    70.3646  70.3646  75.1644  75.1644  75.6617  75.6617  77.7879  77.7879
    78.4918  78.4918  79.4293  79.4293  79.4741  79.4741  80.2468  80.2468
    80.7760  80.7760  81.4594  81.4594  82.2823  82.2823  86.2809  86.2809
    87.6521  87.6521  88.8707  88.8708  92.3714  92.3714  92.4484  92.4484
    93.0064  93.0064 100.5153 100.5154 102.2336 102.2336 103.7394 103.7394
   105.0171 105.0171 106.7076 106.7076

     occupation numbers 
     1.0000   1.0000   1.0000   1.0000   1.0000   1.0000   1.0000   1.0000
     0.0000   0.0000   0.0000   0.0000   0.0000   0.0000   0.0000   0.0000
     0.0000   0.0000   0.0000   0.0000   0.0000   0.0000   0.0000   0.0000
     0.0000   0.0000   0.0000   0.0000   0.0000   0.0000   0.0000   0.0000
     0.0000   0.0000   0.0000   0.0000   0.0000   0.0000   0.0000   0.0000
     0.0000   0.0000   0.0000   0.0000   0.0000   0.0000   0.0000   0.0000
     0.0000   0.0000   0.0000   0.0000   0.0000   0.0000   0.0000   0.0000
     0.0000   0.0000   0.0000   0.0000   0.0000   0.0000   0.0000   0.0000
     0.0000   0.0000   0.0000   0.0000   0.0000   0.0000   0.0000   0.0000
     0.0000   0.0000   0.0000   0.0000   0.0000   0.0000   0.0000   0.0000
     0.0000   0.0000   0.0000   0.0000   0.0000   0.0000   0.0000   0.0000
     0.0000   0.0000   0.0000   0.0000   0.0000   0.0000   0.0000   0.0000
     0.0000   0.0000   0.0000   0.0000

     highest occupied, lowest unoccupied level (ev):     5.1108    8.9888

     Writing output data file hBN.save

     init_run     :      0.03s CPU      0.04s WALL (       1 calls)
     electrons    :     23.92s CPU     18.84s WALL (       1 calls)

     Called by init_run:
     wfcinit      :      0.00s CPU      0.00s WALL (       1 calls)
     potinit      :      0.01s CPU      0.01s WALL (       1 calls)

     Called by electrons:
     c_bands      :     23.92s CPU     18.84s WALL (       1 calls)
     v_of_rho     :      0.00s CPU      0.00s WALL (       1 calls)
     v_h          :      0.00s CPU      0.00s WALL (       1 calls)
     v_xc         :      0.00s CPU      0.00s WALL (       1 calls)

     Called by c_bands:
     init_us_2    :      0.00s CPU      0.00s WALL (      14 calls)
     cegterg      :     22.25s CPU     17.32s WALL (      14 calls)

     Called by sum_band:

     Called by *egterg:
     h_psi        :      7.51s CPU      7.59s WALL (     161 calls)
     g_psi        :      0.06s CPU      0.06s WALL (     133 calls)
     cdiaghg      :      9.40s CPU      7.40s WALL (     147 calls)
     cegterg:over :      2.90s CPU      1.49s WALL (     133 calls)
     cegterg:upda :      2.08s CPU      1.09s WALL (     133 calls)
     cegterg:last :      1.15s CPU      0.59s WALL (      28 calls)

     Called by h_psi:
     h_psi:vloc   :      7.36s CPU      7.47s WALL (     161 calls)
     h_psi:vnl    :      0.13s CPU      0.09s WALL (     161 calls)
     add_vuspsi   :      0.07s CPU      0.05s WALL (     161 calls)

     General routines
     calbec       :      0.06s CPU      0.04s WALL (     161 calls)
     fft          :      0.00s CPU      0.00s WALL (       3 calls)
     fftw         :      6.86s CPU      6.96s WALL (   19104 calls)
     davcio       :      0.00s CPU      0.03s WALL (      28 calls)

     Parallel routines
     fft_scatter  :      0.24s CPU      0.25s WALL (   19107 calls)

     PWSCF        :    24.11s CPU        19.20s WALL


   This run was terminated on:  15: 5:32  23Mar2017            

=------------------------------------------------------------------------------=
   JOB DONE.
=------------------------------------------------------------------------------=
