
     Program PWSCF v.5.2.0 starts on 23Mar2017 at 16: 6: 8 

     This program is part of the open-source Quantum ESPRESSO suite
     for quantum simulation of materials; please cite
         "P. Giannozzi et al., J. Phys.:Condens. Matter 21 395502 (2009);
          URL http://www.quantum-espresso.org", 
     in publications or presentations arising from this work. More details at
     http://www.quantum-espresso.org/quote

     Parallel version (MPI & OpenMP), running on       1 processor cores
     Number of MPI processes:                 1
     Threads/MPI process:                     1
     Waiting for input...
     Reading input from standard input

     Current dimensions of program PWSCF are:
     Max number of different atomic species (ntypx) = 10
     Max number of k-points (npk) =  40000
     Max angular momentum in pseudopotentials (lmaxx) =  3

     Atomic positions and unit cell read from directory:
     ./tmp_b/hbn.save/


     Subspace diagonalization in iterative solution of the eigenvalue problem:
     a serial algorithm will be used


     G-vector sticks info
     --------------------
     sticks:   dense  smooth     PW     G-vecs:    dense   smooth      PW
     Sum         253     253     85                 8029     8029    1553



     bravais-lattice index     =            4
     lattice parameter (alat)  =       4.7160  a.u.
     unit-cell volume          =     234.5353 (a.u.)^3
     number of atoms/cell      =            4
     number of atomic types    =            2
     number of electrons       =        16.00
     number of Kohn-Sham states=           20
     kinetic-energy cutoff     =      40.0000  Ry
     charge density cutoff     =     160.0000  Ry
     Exchange-correlation      =  SLA  PZ   NOGX NOGC ( 1  1  0  0 0 0)

     celldm(1)=   4.716000  celldm(2)=   0.000000  celldm(3)=   2.582000
     celldm(4)=   0.000000  celldm(5)=   0.000000  celldm(6)=   0.000000

     crystal axes: (cart. coord. in units of alat)
               a(1) = (   1.000000   0.000000   0.000000 )  
               a(2) = (  -0.500000   0.866025   0.000000 )  
               a(3) = (   0.000000   0.000000   2.582000 )  

     reciprocal axes: (cart. coord. in units 2 pi/alat)
               b(1) = (  1.000000  0.577350 -0.000000 )  
               b(2) = (  0.000000  1.154701  0.000000 )  
               b(3) = (  0.000000 -0.000000  0.387297 )  


     PseudoPot. # 1 for B  read from file:
     ./Pseudos/B.pz-vbc.UPF
     MD5 check sum: b59596b5d63edeea6a2b3a0beace49c5
     Pseudo is Norm-conserving, Zval =  3.0
     Generated by new atomic code, or converted to UPF format
     Using radial grid of  157 points,  1 beta functions with: 
                l(1) =   0

     PseudoPot. # 2 for N  read from file:
     ./Pseudos/N.pz-vbc.UPF
     MD5 check sum: f7a51f6f78412844d17f6e69b370b417
     Pseudo is Norm-conserving, Zval =  5.0
     Generated by new atomic code, or converted to UPF format
     Using radial grid of  161 points,  1 beta functions with: 
                l(1) =   0

     atomic species   valence    mass     pseudopotential
        B              3.00    10.00000     B ( 1.00)
        N              5.00    14.00000     N ( 1.00)

     12 Sym. Ops. (no inversion) found


                                    s                        frac. trans.

      isym =  1     identity                                     

 cryst.   s( 1) = (     1          0          0      )
                  (     0          1          0      )
                  (     0          0          1      )

 cart.    s( 1) = (  1.0000000  0.0000000  0.0000000 )
                  (  0.0000000  1.0000000  0.0000000 )
                  (  0.0000000  0.0000000  1.0000000 )


      isym =  2     180 deg rotation - cart. axis [0,1,0]        

 cryst.   s( 2) = (    -1          0          0      )
                  (     1          1          0      )
                  (     0          0         -1      )

 cart.    s( 2) = ( -1.0000000  0.0000000  0.0000000 )
                  (  0.0000000  1.0000000  0.0000000 )
                  (  0.0000000  0.0000000 -1.0000000 )


      isym =  3     120 deg rotation - cryst. axis [0,0,1]       

 cryst.   s( 3) = (     0          1          0      )
                  (    -1         -1          0      )
                  (     0          0          1      )

 cart.    s( 3) = ( -0.5000000 -0.8660254  0.0000000 )
                  (  0.8660254 -0.5000000  0.0000000 )
                  (  0.0000000  0.0000000  1.0000000 )


      isym =  4     120 deg rotation - cryst. axis [0,0,-1]      

 cryst.   s( 4) = (    -1         -1          0      )
                  (     1          0          0      )
                  (     0          0          1      )

 cart.    s( 4) = ( -0.5000000  0.8660254  0.0000000 )
                  ( -0.8660254 -0.5000000  0.0000000 )
                  (  0.0000000  0.0000000  1.0000000 )


      isym =  5     180 deg rotation - cryst. axis [1,-1,0]      

 cryst.   s( 5) = (     0         -1          0      )
                  (    -1          0          0      )
                  (     0          0         -1      )

 cart.    s( 5) = (  0.5000000 -0.8660254  0.0000000 )
                  ( -0.8660254 -0.5000000  0.0000000 )
                  (  0.0000000  0.0000000 -1.0000000 )


      isym =  6     180 deg rotation - cryst. axis [2,1,0]       

 cryst.   s( 6) = (     1          1          0      )
                  (     0         -1          0      )
                  (     0          0         -1      )

 cart.    s( 6) = (  0.5000000  0.8660254  0.0000000 )
                  (  0.8660254 -0.5000000  0.0000000 )
                  (  0.0000000  0.0000000 -1.0000000 )


      isym =  7     inv. 180 deg rotation - cart. axis [0,0,1]   

 cryst.   s( 7) = (     1          0          0      )
                  (     0          1          0      )
                  (     0          0         -1      )

 cart.    s( 7) = (  1.0000000  0.0000000  0.0000000 )
                  (  0.0000000  1.0000000  0.0000000 )
                  (  0.0000000  0.0000000 -1.0000000 )


      isym =  8     inv. 180 deg rotation - cart. axis [1,0,0]   

 cryst.   s( 8) = (    -1          0          0      )
                  (     1          1          0      )
                  (     0          0          1      )

 cart.    s( 8) = ( -1.0000000  0.0000000  0.0000000 )
                  (  0.0000000  1.0000000  0.0000000 )
                  (  0.0000000  0.0000000  1.0000000 )


      isym =  9     inv.  60 deg rotation - cryst. axis [0,0,1]  

 cryst.   s( 9) = (    -1         -1          0      )
                  (     1          0          0      )
                  (     0          0         -1      )

 cart.    s( 9) = ( -0.5000000  0.8660254  0.0000000 )
                  ( -0.8660254 -0.5000000  0.0000000 )
                  (  0.0000000  0.0000000 -1.0000000 )


      isym = 10     inv.  60 deg rotation - cryst. axis [0,0,-1] 

 cryst.   s(10) = (     0          1          0      )
                  (    -1         -1          0      )
                  (     0          0         -1      )

 cart.    s(10) = ( -0.5000000 -0.8660254  0.0000000 )
                  (  0.8660254 -0.5000000  0.0000000 )
                  (  0.0000000  0.0000000 -1.0000000 )


      isym = 11     inv. 180 deg rotation - cryst. axis [0,1,0]  

 cryst.   s(11) = (     1          1          0      )
                  (     0         -1          0      )
                  (     0          0          1      )

 cart.    s(11) = (  0.5000000  0.8660254  0.0000000 )
                  (  0.8660254 -0.5000000  0.0000000 )
                  (  0.0000000  0.0000000  1.0000000 )


      isym = 12     inv. 180 deg rotation - cryst. axis [1,1,0]  

 cryst.   s(12) = (     0         -1          0      )
                  (    -1          0          0      )
                  (     0          0          1      )

 cart.    s(12) = (  0.5000000 -0.8660254  0.0000000 )
                  ( -0.8660254 -0.5000000  0.0000000 )
                  (  0.0000000  0.0000000  1.0000000 )


     point group D_3h (-62m)
     there are  6 classes
     the character table:

       E     2C3   3C2   s_h   2S3   3s_v 
A'_1   1.00  1.00  1.00  1.00  1.00  1.00
A'_2   1.00  1.00 -1.00  1.00  1.00 -1.00
E'     2.00 -1.00  0.00  2.00 -1.00  0.00
A''1   1.00  1.00  1.00 -1.00 -1.00 -1.00
A''2   1.00  1.00 -1.00 -1.00 -1.00  1.00
E''    2.00 -1.00  0.00 -2.00  1.00  0.00

     the symmetry operations in each class and the name of the first element:

     E        1
          identity                                               
     2C3      3    4
          120 deg rotation - cryst. axis [0,0,1]                 
     3C2      2    6    5
          180 deg rotation - cart. axis [0,1,0]                  
     s_h      7
          inv. 180 deg rotation - cart. axis [0,0,1]             
     2S3      9   10
          inv.  60 deg rotation - cryst. axis [0,0,1]            
     3s_v     8   11   12
          inv. 180 deg rotation - cart. axis [1,0,0]             

   Cartesian axes

     site n.     atom                  positions (alat units)
         1           B   tau(   1) = (   0.5000001   0.2886751   0.0000000  )
         2           N   tau(   2) = (  -0.5000001  -0.2886751   0.0000000  )
         3           B   tau(   3) = (  -0.5000001  -0.2886751   1.2910000  )
         4           N   tau(   4) = (   0.5000001   0.2886751   1.2910000  )

   Crystallographic axes

     site n.     atom                  positions (cryst. coord.)
         1           B   tau(   1) = (  0.6666667  0.3333333  0.0000000  )
         2           N   tau(   2) = ( -0.6666667 -0.3333333  0.0000000  )
         3           B   tau(   3) = ( -0.6666667 -0.3333333  0.5000000  )
         4           N   tau(   4) = (  0.6666667  0.3333333  0.5000000  )

     number of k points=    81
                       cart. coord. in units 2pi/alat
        k(    1) = (   0.3330000  -0.5775466   0.0000000), wk =   0.0246914
        k(    2) = (   0.3108000  -0.5390435   0.0000000), wk =   0.0246914
        k(    3) = (   0.2886000  -0.5005404   0.0000000), wk =   0.0246914
        k(    4) = (   0.2664000  -0.4620373   0.0000000), wk =   0.0246914
        k(    5) = (   0.2442000  -0.4235342   0.0000000), wk =   0.0246914
        k(    6) = (   0.2220000  -0.3850310   0.0000000), wk =   0.0246914
        k(    7) = (   0.1998000  -0.3465279   0.0000000), wk =   0.0246914
        k(    8) = (   0.1776000  -0.3080248   0.0000000), wk =   0.0246914
        k(    9) = (   0.1554000  -0.2695217   0.0000000), wk =   0.0246914
        k(   10) = (   0.1332000  -0.2310186   0.0000000), wk =   0.0246914
        k(   11) = (   0.1110000  -0.1925155   0.0000000), wk =   0.0246914
        k(   12) = (   0.0888000  -0.1540124   0.0000000), wk =   0.0246914
        k(   13) = (   0.0666000  -0.1155093   0.0000000), wk =   0.0246914
        k(   14) = (   0.0444000  -0.0770062   0.0000000), wk =   0.0246914
        k(   15) = (   0.0222000  -0.0385031   0.0000000), wk =   0.0246914
        k(   16) = (   0.0000000   0.0000000   0.0000000), wk =   0.0246914
        k(   17) = (   0.0333333  -0.0192450   0.0000000), wk =   0.0246914
        k(   18) = (   0.0666667  -0.0384900   0.0000000), wk =   0.0246914
        k(   19) = (   0.1000000  -0.0577350   0.0000000), wk =   0.0246914
        k(   20) = (   0.1333333  -0.0769800   0.0000000), wk =   0.0246914
        k(   21) = (   0.1666667  -0.0962250   0.0000000), wk =   0.0246914
        k(   22) = (   0.2000000  -0.1154701   0.0000000), wk =   0.0246914
        k(   23) = (   0.2333333  -0.1347151   0.0000000), wk =   0.0246914
        k(   24) = (   0.2666667  -0.1539601   0.0000000), wk =   0.0246914
        k(   25) = (   0.3000000  -0.1732051   0.0000000), wk =   0.0246914
        k(   26) = (   0.3333333  -0.1924501   0.0000000), wk =   0.0246914
        k(   27) = (   0.3666667  -0.2116951   0.0000000), wk =   0.0246914
        k(   28) = (   0.4000000  -0.2309401   0.0000000), wk =   0.0246914
        k(   29) = (   0.4333333  -0.2501851   0.0000000), wk =   0.0246914
        k(   30) = (   0.4666667  -0.2694301   0.0000000), wk =   0.0246914
        k(   31) = (   0.5000000  -0.2886751   0.0000000), wk =   0.0246914
        k(   32) = (   0.4888667  -0.3079332   0.0000000), wk =   0.0246914
        k(   33) = (   0.4777333  -0.3271913   0.0000000), wk =   0.0246914
        k(   34) = (   0.4666000  -0.3464494   0.0000000), wk =   0.0246914
        k(   35) = (   0.4554667  -0.3657075   0.0000000), wk =   0.0246914
        k(   36) = (   0.4443333  -0.3849656   0.0000000), wk =   0.0246914
        k(   37) = (   0.4332000  -0.4042237   0.0000000), wk =   0.0246914
        k(   38) = (   0.4220667  -0.4234818   0.0000000), wk =   0.0246914
        k(   39) = (   0.4109333  -0.4427399   0.0000000), wk =   0.0246914
        k(   40) = (   0.3998000  -0.4619980   0.0000000), wk =   0.0246914
        k(   41) = (   0.3886667  -0.4812561   0.0000000), wk =   0.0246914
        k(   42) = (   0.3775333  -0.5005142   0.0000000), wk =   0.0246914
        k(   43) = (   0.3664000  -0.5197723   0.0000000), wk =   0.0246914
        k(   44) = (   0.3552667  -0.5390304   0.0000000), wk =   0.0246914
        k(   45) = (   0.3441333  -0.5582885   0.0000000), wk =   0.0246914
        k(   46) = (   0.3330000  -0.5775466   0.0000000), wk =   0.0246914
        k(   47) = (   0.3330000  -0.5775466   0.0387297), wk =   0.0246914
        k(   48) = (   0.3330000  -0.5775466   0.0774593), wk =   0.0246914
        k(   49) = (   0.3330000  -0.5775466   0.1161890), wk =   0.0246914
        k(   50) = (   0.3330000  -0.5775466   0.1549187), wk =   0.0246914
        k(   51) = (   0.3330000  -0.5775466   0.1936483), wk =   0.0246914
        k(   52) = (   0.3108000  -0.5390435   0.1936483), wk =   0.0246914
        k(   53) = (   0.2886000  -0.5005404   0.1936483), wk =   0.0246914
        k(   54) = (   0.2664000  -0.4620373   0.1936483), wk =   0.0246914
        k(   55) = (   0.2442000  -0.4235342   0.1936483), wk =   0.0246914
        k(   56) = (   0.2220000  -0.3850310   0.1936483), wk =   0.0246914
        k(   57) = (   0.1998000  -0.3465279   0.1936483), wk =   0.0246914
        k(   58) = (   0.1776000  -0.3080248   0.1936483), wk =   0.0246914
        k(   59) = (   0.1554000  -0.2695217   0.1936483), wk =   0.0246914
        k(   60) = (   0.1332000  -0.2310186   0.1936483), wk =   0.0246914
        k(   61) = (   0.1110000  -0.1925155   0.1936483), wk =   0.0246914
        k(   62) = (   0.0888000  -0.1540124   0.1936483), wk =   0.0246914
        k(   63) = (   0.0666000  -0.1155093   0.1936483), wk =   0.0246914
        k(   64) = (   0.0444000  -0.0770062   0.1936483), wk =   0.0246914
        k(   65) = (   0.0222000  -0.0385031   0.1936483), wk =   0.0246914
        k(   66) = (   0.0000000   0.0000000   0.1936483), wk =   0.0246914
        k(   67) = (   0.0333333  -0.0192450   0.1936483), wk =   0.0246914
        k(   68) = (   0.0666667  -0.0384900   0.1936483), wk =   0.0246914
        k(   69) = (   0.1000000  -0.0577350   0.1936483), wk =   0.0246914
        k(   70) = (   0.1333333  -0.0769800   0.1936483), wk =   0.0246914
        k(   71) = (   0.1666667  -0.0962250   0.1936483), wk =   0.0246914
        k(   72) = (   0.2000000  -0.1154701   0.1936483), wk =   0.0246914
        k(   73) = (   0.2333333  -0.1347151   0.1936483), wk =   0.0246914
        k(   74) = (   0.2666667  -0.1539601   0.1936483), wk =   0.0246914
        k(   75) = (   0.3000000  -0.1732051   0.1936483), wk =   0.0246914
        k(   76) = (   0.3333333  -0.1924501   0.1936483), wk =   0.0246914
        k(   77) = (   0.3666667  -0.2116951   0.1936483), wk =   0.0246914
        k(   78) = (   0.4000000  -0.2309401   0.1936483), wk =   0.0246914
        k(   79) = (   0.4333333  -0.2501851   0.1936483), wk =   0.0246914
        k(   80) = (   0.4666667  -0.2694301   0.1936483), wk =   0.0246914
        k(   81) = (   0.5000000  -0.2886751   0.1936483), wk =   0.0246914

                       cryst. coord.
        k(    1) = (   0.3330000  -0.6666700   0.0000000), wk =   0.0246914
        k(    2) = (   0.3108000  -0.6222253   0.0000000), wk =   0.0246914
        k(    3) = (   0.2886000  -0.5777807   0.0000000), wk =   0.0246914
        k(    4) = (   0.2664000  -0.5333360   0.0000000), wk =   0.0246914
        k(    5) = (   0.2442000  -0.4888913   0.0000000), wk =   0.0246914
        k(    6) = (   0.2220000  -0.4444467   0.0000000), wk =   0.0246914
        k(    7) = (   0.1998000  -0.4000020   0.0000000), wk =   0.0246914
        k(    8) = (   0.1776000  -0.3555573   0.0000000), wk =   0.0246914
        k(    9) = (   0.1554000  -0.3111127   0.0000000), wk =   0.0246914
        k(   10) = (   0.1332000  -0.2666680   0.0000000), wk =   0.0246914
        k(   11) = (   0.1110000  -0.2222233   0.0000000), wk =   0.0246914
        k(   12) = (   0.0888000  -0.1777787   0.0000000), wk =   0.0246914
        k(   13) = (   0.0666000  -0.1333340   0.0000000), wk =   0.0246914
        k(   14) = (   0.0444000  -0.0888893   0.0000000), wk =   0.0246914
        k(   15) = (   0.0222000  -0.0444447   0.0000000), wk =   0.0246914
        k(   16) = (   0.0000000   0.0000000   0.0000000), wk =   0.0246914
        k(   17) = (   0.0333333  -0.0333333   0.0000000), wk =   0.0246914
        k(   18) = (   0.0666667  -0.0666667   0.0000000), wk =   0.0246914
        k(   19) = (   0.1000000  -0.1000000   0.0000000), wk =   0.0246914
        k(   20) = (   0.1333333  -0.1333333   0.0000000), wk =   0.0246914
        k(   21) = (   0.1666667  -0.1666667   0.0000000), wk =   0.0246914
        k(   22) = (   0.2000000  -0.2000000   0.0000000), wk =   0.0246914
        k(   23) = (   0.2333333  -0.2333333   0.0000000), wk =   0.0246914
        k(   24) = (   0.2666667  -0.2666667   0.0000000), wk =   0.0246914
        k(   25) = (   0.3000000  -0.3000000   0.0000000), wk =   0.0246914
        k(   26) = (   0.3333333  -0.3333333   0.0000000), wk =   0.0246914
        k(   27) = (   0.3666667  -0.3666667   0.0000000), wk =   0.0246914
        k(   28) = (   0.4000000  -0.4000000   0.0000000), wk =   0.0246914
        k(   29) = (   0.4333333  -0.4333333   0.0000000), wk =   0.0246914
        k(   30) = (   0.4666667  -0.4666667   0.0000000), wk =   0.0246914
        k(   31) = (   0.5000000  -0.5000000   0.0000000), wk =   0.0246914
        k(   32) = (   0.4888667  -0.5111113   0.0000000), wk =   0.0246914
        k(   33) = (   0.4777333  -0.5222227   0.0000000), wk =   0.0246914
        k(   34) = (   0.4666000  -0.5333340   0.0000000), wk =   0.0246914
        k(   35) = (   0.4554667  -0.5444453   0.0000000), wk =   0.0246914
        k(   36) = (   0.4443333  -0.5555567   0.0000000), wk =   0.0246914
        k(   37) = (   0.4332000  -0.5666680   0.0000000), wk =   0.0246914
        k(   38) = (   0.4220667  -0.5777793   0.0000000), wk =   0.0246914
        k(   39) = (   0.4109333  -0.5888907   0.0000000), wk =   0.0246914
        k(   40) = (   0.3998000  -0.6000020   0.0000000), wk =   0.0246914
        k(   41) = (   0.3886667  -0.6111133   0.0000000), wk =   0.0246914
        k(   42) = (   0.3775333  -0.6222247   0.0000000), wk =   0.0246914
        k(   43) = (   0.3664000  -0.6333360   0.0000000), wk =   0.0246914
        k(   44) = (   0.3552667  -0.6444473   0.0000000), wk =   0.0246914
        k(   45) = (   0.3441333  -0.6555587   0.0000000), wk =   0.0246914
        k(   46) = (   0.3330000  -0.6666700   0.0000000), wk =   0.0246914
        k(   47) = (   0.3330000  -0.6666700   0.1000000), wk =   0.0246914
        k(   48) = (   0.3330000  -0.6666700   0.2000000), wk =   0.0246914
        k(   49) = (   0.3330000  -0.6666700   0.3000000), wk =   0.0246914
        k(   50) = (   0.3330000  -0.6666700   0.4000000), wk =   0.0246914
        k(   51) = (   0.3330000  -0.6666700   0.5000000), wk =   0.0246914
        k(   52) = (   0.3108000  -0.6222253   0.5000000), wk =   0.0246914
        k(   53) = (   0.2886000  -0.5777807   0.5000000), wk =   0.0246914
        k(   54) = (   0.2664000  -0.5333360   0.5000000), wk =   0.0246914
        k(   55) = (   0.2442000  -0.4888913   0.5000000), wk =   0.0246914
        k(   56) = (   0.2220000  -0.4444467   0.5000000), wk =   0.0246914
        k(   57) = (   0.1998000  -0.4000020   0.5000000), wk =   0.0246914
        k(   58) = (   0.1776000  -0.3555573   0.5000000), wk =   0.0246914
        k(   59) = (   0.1554000  -0.3111127   0.5000000), wk =   0.0246914
        k(   60) = (   0.1332000  -0.2666680   0.5000000), wk =   0.0246914
        k(   61) = (   0.1110000  -0.2222233   0.5000000), wk =   0.0246914
        k(   62) = (   0.0888000  -0.1777787   0.5000000), wk =   0.0246914
        k(   63) = (   0.0666000  -0.1333340   0.5000000), wk =   0.0246914
        k(   64) = (   0.0444000  -0.0888893   0.5000000), wk =   0.0246914
        k(   65) = (   0.0222000  -0.0444447   0.5000000), wk =   0.0246914
        k(   66) = (   0.0000000   0.0000000   0.5000000), wk =   0.0246914
        k(   67) = (   0.0333333  -0.0333333   0.5000000), wk =   0.0246914
        k(   68) = (   0.0666667  -0.0666667   0.5000000), wk =   0.0246914
        k(   69) = (   0.1000000  -0.1000000   0.5000000), wk =   0.0246914
        k(   70) = (   0.1333333  -0.1333333   0.5000000), wk =   0.0246914
        k(   71) = (   0.1666667  -0.1666667   0.5000000), wk =   0.0246914
        k(   72) = (   0.2000000  -0.2000000   0.5000000), wk =   0.0246914
        k(   73) = (   0.2333333  -0.2333333   0.5000000), wk =   0.0246914
        k(   74) = (   0.2666667  -0.2666667   0.5000000), wk =   0.0246914
        k(   75) = (   0.3000000  -0.3000000   0.5000000), wk =   0.0246914
        k(   76) = (   0.3333333  -0.3333333   0.5000000), wk =   0.0246914
        k(   77) = (   0.3666667  -0.3666667   0.5000000), wk =   0.0246914
        k(   78) = (   0.4000000  -0.4000000   0.5000000), wk =   0.0246914
        k(   79) = (   0.4333333  -0.4333333   0.5000000), wk =   0.0246914
        k(   80) = (   0.4666667  -0.4666667   0.5000000), wk =   0.0246914
        k(   81) = (   0.5000000  -0.5000000   0.5000000), wk =   0.0246914

     Dense  grid:     8029 G-vectors     FFT dimensions: (  20,  20,  50)

     Largest allocated arrays     est. size (Mb)     dimensions
        Kohn-Sham Wavefunctions         0.31 Mb     (    1016,   20)
        NL pseudopotentials             0.06 Mb     (    1016,    4)
        Each V/rho on FFT grid          0.31 Mb     (   20000)
        Each G-vector array             0.06 Mb     (    8029)
        G-vector shells                 0.00 Mb     (     470)
     Largest temporary arrays     est. size (Mb)     dimensions
        Auxiliary wavefunctions         1.24 Mb     (    1016,   80)
        Each subspace H/S matrix        0.10 Mb     (      80,   80)
        Each <psi_i|beta_j> matrix      0.00 Mb     (       4,   20)

     The potential is recalculated from file :
     ./tmp_b/hbn.save/charge-density.dat

     Starting wfc are   16 randomized atomic wfcs +    4 random wfc

     Band Structure Calculation
     Davidson diagonalization with overlap

     Computing kpt #:     1
     total cpu time spent up to now is        0.3 secs

     Computing kpt #:     2
     total cpu time spent up to now is        0.6 secs

     Computing kpt #:     3
     total cpu time spent up to now is        0.9 secs

     Computing kpt #:     4
     total cpu time spent up to now is        1.1 secs

     Computing kpt #:     5
     total cpu time spent up to now is        1.3 secs

     Computing kpt #:     6
     total cpu time spent up to now is        1.6 secs

     Computing kpt #:     7
     total cpu time spent up to now is        1.8 secs

     Computing kpt #:     8
     total cpu time spent up to now is        2.1 secs

     Computing kpt #:     9
     total cpu time spent up to now is        2.3 secs

     Computing kpt #:    10
     total cpu time spent up to now is        2.6 secs

     Computing kpt #:    11
     total cpu time spent up to now is        2.8 secs

     Computing kpt #:    12
     total cpu time spent up to now is        3.0 secs

     Computing kpt #:    13
     total cpu time spent up to now is        3.3 secs

     Computing kpt #:    14
     total cpu time spent up to now is        3.5 secs

     Computing kpt #:    15
     total cpu time spent up to now is        3.7 secs

     Computing kpt #:    16
     total cpu time spent up to now is        3.9 secs

     Computing kpt #:    17
     total cpu time spent up to now is        4.1 secs

     Computing kpt #:    18
     total cpu time spent up to now is        4.3 secs

     Computing kpt #:    19
     total cpu time spent up to now is        4.6 secs

     Computing kpt #:    20
     total cpu time spent up to now is        4.8 secs

     Computing kpt #:    21
     total cpu time spent up to now is        5.1 secs

     Computing kpt #:    22
     total cpu time spent up to now is        5.3 secs

     Computing kpt #:    23
     total cpu time spent up to now is        5.5 secs

     Computing kpt #:    24
     total cpu time spent up to now is        5.7 secs

     Computing kpt #:    25
     total cpu time spent up to now is        5.9 secs

     Computing kpt #:    26
     total cpu time spent up to now is        6.2 secs

     Computing kpt #:    27
     total cpu time spent up to now is        6.4 secs

     Computing kpt #:    28
     total cpu time spent up to now is        6.6 secs

     Computing kpt #:    29
     total cpu time spent up to now is        6.9 secs

     Computing kpt #:    30
     total cpu time spent up to now is        7.1 secs

     Computing kpt #:    31
     total cpu time spent up to now is        7.4 secs

     Computing kpt #:    32
     total cpu time spent up to now is        7.7 secs

     Computing kpt #:    33
     total cpu time spent up to now is        7.9 secs

     Computing kpt #:    34
     total cpu time spent up to now is        8.2 secs

     Computing kpt #:    35
     total cpu time spent up to now is        8.5 secs

     Computing kpt #:    36
     total cpu time spent up to now is        8.7 secs

     Computing kpt #:    37
     total cpu time spent up to now is        9.0 secs

     Computing kpt #:    38
     total cpu time spent up to now is        9.3 secs

     Computing kpt #:    39
     total cpu time spent up to now is        9.5 secs

     Computing kpt #:    40
     total cpu time spent up to now is        9.8 secs

     Computing kpt #:    41
     total cpu time spent up to now is       10.2 secs

     Computing kpt #:    42
     total cpu time spent up to now is       10.4 secs

     Computing kpt #:    43
     total cpu time spent up to now is       10.7 secs

     Computing kpt #:    44
     total cpu time spent up to now is       10.9 secs

     Computing kpt #:    45
     total cpu time spent up to now is       11.1 secs

     Computing kpt #:    46
     total cpu time spent up to now is       11.3 secs

     Computing kpt #:    47
     total cpu time spent up to now is       11.6 secs

     Computing kpt #:    48
     total cpu time spent up to now is       12.4 secs

     Computing kpt #:    49
     total cpu time spent up to now is       13.3 secs

     Computing kpt #:    50
     total cpu time spent up to now is       14.1 secs

     Computing kpt #:    51
     total cpu time spent up to now is       14.9 secs

     Computing kpt #:    52
     total cpu time spent up to now is       15.8 secs

     Computing kpt #:    53
     total cpu time spent up to now is       16.7 secs

     Computing kpt #:    54
     total cpu time spent up to now is       17.6 secs

     Computing kpt #:    55
     total cpu time spent up to now is       18.5 secs

     Computing kpt #:    56
     total cpu time spent up to now is       18.9 secs

     Computing kpt #:    57
     total cpu time spent up to now is       19.1 secs

     Computing kpt #:    58
     total cpu time spent up to now is       19.3 secs

     Computing kpt #:    59
     total cpu time spent up to now is       19.6 secs

     Computing kpt #:    60
     total cpu time spent up to now is       19.9 secs

     Computing kpt #:    61
     total cpu time spent up to now is       20.1 secs

     Computing kpt #:    62
     total cpu time spent up to now is       20.3 secs

     Computing kpt #:    63
     total cpu time spent up to now is       20.6 secs

     Computing kpt #:    64
     total cpu time spent up to now is       20.8 secs

     Computing kpt #:    65
     total cpu time spent up to now is       21.0 secs

     Computing kpt #:    66
     total cpu time spent up to now is       21.2 secs

     Computing kpt #:    67
     total cpu time spent up to now is       21.4 secs

     Computing kpt #:    68
     total cpu time spent up to now is       21.7 secs

     Computing kpt #:    69
     total cpu time spent up to now is       21.9 secs

     Computing kpt #:    70
     total cpu time spent up to now is       22.1 secs

     Computing kpt #:    71
     total cpu time spent up to now is       22.3 secs

     Computing kpt #:    72
     total cpu time spent up to now is       22.5 secs

     Computing kpt #:    73
     total cpu time spent up to now is       22.8 secs

     Computing kpt #:    74
     total cpu time spent up to now is       23.0 secs

     Computing kpt #:    75
     total cpu time spent up to now is       23.2 secs

     Computing kpt #:    76
     total cpu time spent up to now is       23.5 secs

     Computing kpt #:    77
     total cpu time spent up to now is       23.7 secs

     Computing kpt #:    78
     total cpu time spent up to now is       24.1 secs

     Computing kpt #:    79
     total cpu time spent up to now is       24.9 secs

     Computing kpt #:    80
     total cpu time spent up to now is       25.8 secs

     Computing kpt #:    81
     total cpu time spent up to now is       26.7 secs

     ethr =  6.25E-11,  avg # of iterations = 16.8

     total cpu time spent up to now is       26.7 secs

     End of band structure calculation

          k = 0.3330-0.5775 0.0000 (  1005 PWs)   bands (ev):

    -9.3741  -9.3738  -3.2145  -2.9432  -2.1102  -2.1100   4.9748   4.9789
     9.7862   9.7893  15.1999  18.2577  18.2640  18.8210  21.8077  23.0943
    23.0972  23.1391  25.0759  25.0766

          k = 0.3108-0.5390 0.0000 (   997 PWs)   bands (ev):

    -9.4383  -9.3998  -3.2010  -2.9971  -1.9594  -1.9449   4.6533   5.1522
     9.6682  10.0191  15.3431  17.6937  18.5906  18.8538  21.9185  22.1873
    22.8323  24.0312  25.1988  25.3197

          k = 0.2886-0.5005 0.0000 (  1003 PWs)   bands (ev):

    -9.6151  -9.5237  -3.1639  -3.0210  -1.6663  -1.6106   4.1660   5.1609
     9.7333  10.3779  15.7337  16.8723  18.8070  18.8148  21.2832  22.2385
    22.3675  24.4592  25.4441  26.0049

          k = 0.2664-0.4620 0.0000 (  1003 PWs)   bands (ev):

    -9.8915  -9.7538  -2.9717  -2.8778  -1.2552  -1.1902   3.5610   4.9631
    10.0338  10.8468  16.0048  16.3113  18.6484  18.9450  20.4331  21.8933
    22.7465  24.7096  25.4830  25.7928

          k = 0.2442-0.4235 0.0000 (  1005 PWs)   bands (ev):

   -10.2457 -10.0634  -2.6225  -2.5852  -0.7865  -0.7158   2.8883   4.6092
    10.5559  11.4128  15.1398  17.0219  18.3755  18.9795  19.6447  21.4501
    23.4198  24.9216  24.9970  26.2440

          k = 0.2220-0.3850 0.0000 (  1011 PWs)   bands (ev):

   -10.6462 -10.4237  -2.1708  -2.1380  -0.2897  -0.2098   2.2130   4.1542
    11.2462  12.0389  14.3117  17.8148  18.0083  18.8626  18.9855  21.0567
    24.2326  24.6249  24.9771  26.6606

          k = 0.1998-0.3465 0.0000 (  1013 PWs)   bands (ev):

   -11.0579 -10.8051  -1.5813  -1.5784   0.2278   0.3076   1.5510   3.6619
    12.0475  12.6946  13.5574  17.6029  18.2680  18.6305  18.8009  20.6944
    24.4203  24.6253  25.1683  26.5743

          k = 0.1776-0.3080 0.0000 (  1009 PWs)   bands (ev):

   -11.4641 -11.1839  -0.9256  -0.9069   0.7751   0.8666   0.9348   3.1736
    12.8581  12.9432  13.3577  17.2215  17.7234  18.6266  19.3941  20.3256
    23.8307  24.4807  25.6616  26.2025

          k = 0.1554-0.2695 0.0000 (  1003 PWs)   bands (ev):

   -11.8440 -11.5421  -0.2161  -0.1678   0.3724   1.3295   1.4269   2.7119
    12.2338  13.8821  14.0136  16.8872  17.2691  18.4214  19.9296  20.0297
    22.7726  24.5224  24.8876  27.3097

          k = 0.1332-0.2310 0.0000 (   989 PWs)   bands (ev):

   -12.1891 -11.8642  -0.1164   0.5607   0.6294   1.8739   1.9688   2.2876
    11.6829  14.5876  14.8383  16.6264  16.9128  18.1927  19.4751  20.5205
    21.6253  23.4209  25.6770  28.4352

          k = 0.1110-0.1925 0.0000 (   993 PWs)   bands (ev):

   -12.4941 -12.1529  -0.5447   1.3214   1.3740   1.9123   2.3779   2.4421
    11.1934  15.0872  15.7635  16.4459  16.6522  17.9147  18.9348  20.4375
    20.9096  22.3696  26.7902  28.7194

          k = 0.0888-0.1540 0.0000 (   989 PWs)   bands (ev):

   -12.7487 -12.3932  -0.8983   1.5963   2.0666   2.1267   2.8488   2.8951
    10.7760  15.4373  16.3592  16.5035  16.6098  17.6304  18.3492  19.3429
    21.2600  21.4782  28.1391  28.6581

          k = 0.0666-0.1155 0.0000 (  1005 PWs)   bands (ev):

   -12.9517 -12.5872  -1.2050   1.3188   2.7404   2.7426   3.2376   3.2712
    10.4329  15.6305  16.3273  16.4477  17.3024  17.3072  17.7209  18.4038
    20.7554  21.5844  28.4693  29.6386

          k = 0.0444-0.0770 0.0000 (  1005 PWs)   bands (ev):

   -13.0973 -12.7255  -1.4136   1.1395   3.2663   3.3002   3.5558   3.5598
    10.1703  15.7656  16.3796  16.4776  16.9440  17.1692  17.7281  17.8618
    20.2213  21.8678  28.2369  30.0664

          k = 0.0222-0.0385 0.0000 (  1009 PWs)   bands (ev):

   -13.1856 -12.8107  -1.5366   1.0297   3.6335   3.6354   3.7336   3.7359
    10.0010  15.8337  16.4349  16.5671  16.6184  16.7965  17.3180  18.2155
    19.8784  22.0591  28.0516  29.8387

          k = 0.0000 0.0000 0.0000 (   997 PWs)   bands (ev):

   -13.2132 -12.8371  -1.5746   0.9977   3.8111   3.8111   3.8144   3.8144
     9.9432  15.8750  16.4725  16.4725  16.6658  16.6658  17.1644  18.3422
    19.7598  22.1368  27.9817  29.7581

          k = 0.0333-0.0192 0.0000 (  1011 PWs)   bands (ev):

   -13.1933 -12.8180  -1.5470   1.0203   3.6629   3.6730   3.7196   3.7519
     9.9861  15.8388  16.4377  16.5713  16.6013  16.7593  17.2805  18.2441
    19.8482  22.0760  28.0345  29.8188

          k = 0.0667-0.0385 0.0000 (  1009 PWs)   bands (ev):

   -13.1271 -12.7542  -1.4547   1.1026   3.3802   3.4053   3.5901   3.6152
    10.1146  15.7887  16.3414  16.5269  16.8700  17.0581  17.5776  17.9764
    20.1076  21.9295  28.1789  29.9931

          k = 0.1000-0.0577 0.0000 (  1007 PWs)   bands (ev):

   -13.0179 -12.6483  -1.2835   1.2369   2.9499   2.9629   3.3673   3.3980
    10.3152  15.7163  16.1771  16.4892  17.3390  17.5383  17.5460  17.9901
    20.5060  21.7072  28.3734  30.2492

          k = 0.1333-0.0770 0.0000 (  1006 PWs)   bands (ev):

   -12.8654 -12.5057  -1.0777   1.4338   2.3695   2.3939   3.1319   3.1437
    10.5750  15.5411  15.9973  16.4414  16.9789  18.0010  18.1701  18.4701
    21.0089  21.4423  28.5499  29.3002

          k = 0.1667-0.0962 0.0000 (   996 PWs)   bands (ev):

   -12.6709 -12.3212  -0.8043   1.6854   1.7132   1.7901   2.8502   2.8512
    10.8861  15.2799  15.8152  16.3230  16.4092  18.7830  18.9459  19.0173
    21.1678  21.5959  28.2480  28.6189

          k = 0.2000-0.1155 0.0000 (   990 PWs)   bands (ev):

   -12.4383 -12.0998  -0.4740   0.9849   1.0989   1.9743   2.5446   2.5778
    11.2396  14.9219  15.5641  15.6277  16.3677  19.5784  19.6697  19.8693
    20.9162  22.2225  27.3293  28.4752

          k = 0.2333-0.1347 0.0000 (   982 PWs)   bands (ev):

   -12.1690 -11.8467  -0.0955   0.2401   0.3565   2.2536   2.2979   2.3238
    11.6317  14.3612  14.8385  15.4536  16.3429  20.1113  20.6738  20.7060
    20.8479  22.8899  26.5515  28.0663

          k = 0.2667-0.1540 0.0000 (   992 PWs)   bands (ev):

   -11.8720 -11.5666  -0.5300  -0.4212   0.3360   1.9213   2.0023   2.6861
    12.0500  13.5640  14.1959  15.2905  16.3238  20.5416  20.5438  21.7077
    21.8800  23.5267  25.9078  27.4891

          k = 0.3000-0.1732 0.0000 (   998 PWs)   bands (ev):

   -11.5502 -11.2639  -1.2616  -1.1828   0.8117   1.6487   1.7309   3.0762
    12.4909  12.6737  13.5568  15.1437  16.3325  20.4226  20.8236  22.7742
    22.9462  24.1653  25.4007  26.9395

          k = 0.3333-0.1925 0.0000 (  1004 PWs)   bands (ev):

   -11.2136 -10.9503  -1.9902  -1.8840   1.3337   1.4001   1.4726   3.4859
    11.7788  12.9291  12.9458  15.0179  16.3801  20.3374  20.8323  23.8403
    24.0218  24.7819  25.0175  26.5756

          k = 0.3667-0.2117 0.0000 (  1008 PWs)   bands (ev):

   -10.8723 -10.6387  -2.6384  -2.5321   1.1944   1.2661   1.8719   3.8835
    10.9172  12.3034  13.3875  14.9142  16.4807  20.2702  20.5879  24.7292
    24.8615  25.0408  25.3574  26.4811

          k = 0.4000-0.2309 0.0000 (  1004 PWs)   bands (ev):

   -10.5486 -10.3510  -3.1864  -3.0578   1.0232   1.1082   2.4161   4.2487
    10.1531  11.7061  13.7854  14.8354  16.6672  20.1180  20.2207  24.5316
    25.7908  25.9022  25.9806  26.6153

          k = 0.4333-0.2502 0.0000 (  1014 PWs)   bands (ev):

   -10.2751 -10.1169  -3.6352  -3.5231   0.9009   0.9890   2.9144   4.5056
     9.5357  11.2057  14.0836  14.7746  16.9475  19.5195  20.1799  24.3981
    26.2361  26.4403  26.5371  26.7389

          k = 0.4667-0.2694 0.0000 (  1010 PWs)   bands (ev):

   -10.0766  -9.9626  -3.8913  -3.8101   0.8279   0.9550   3.2833   4.6542
     9.1283  10.8627  14.2736  14.7392  17.3177  18.9566  20.1560  24.3055
    26.3355  26.4840  27.0251  27.0756

          k = 0.5000-0.2887 0.0000 (  1016 PWs)   bands (ev):

   -10.0065  -9.9171  -3.9985  -3.9190   0.8024   0.9070   3.4249   4.6990
     8.9888  10.7502  14.3342  14.7323  17.5473  18.6492  20.1405  24.2779
    26.2999  26.5732  27.0980  27.1681

          k = 0.4889-0.3079 0.0000 (  1008 PWs)   bands (ev):

   -10.0006  -9.9095  -3.9924  -3.9118   0.7794   0.8850   3.4709   4.7154
     8.9965  10.7511  14.3754  14.7779  17.5543  18.6633  20.0651  24.3015
    26.3585  26.5570  26.8621  27.4172

          k = 0.4777-0.3272 0.0000 (  1010 PWs)   bands (ev):

    -9.9839  -9.8956  -3.9659  -3.8848   0.6878   0.7827   3.4789   4.7279
     9.0136  10.7144  14.4945  14.9088  17.5811  18.7005  19.8197  24.2583
    26.5096  26.5159  26.5690  27.4018

          k = 0.4666-0.3464 0.0000 (  1014 PWs)   bands (ev):

    -9.9605  -9.8724  -3.9515  -3.8586   0.5427   0.6384   3.5211   4.7503
     9.0425  10.6982  14.6862  15.1231  17.6052  18.7702  19.4572  24.2004
    26.2404  26.4137  26.7339  27.0106

          k = 0.4555-0.3657 0.0000 (  1014 PWs)   bands (ev):

    -9.9271  -9.8403  -3.9144  -3.8190   0.3513   0.4485   3.5807   4.7861
     9.0822  10.6763  14.9423  15.4165  17.6514  18.8745  19.0138  24.0977
    25.9070  26.3008  26.6259  26.9714

          k = 0.4443-0.3850 0.0000 (  1008 PWs)   bands (ev):

    -9.8833  -9.7989  -3.8582  -3.7663   0.1301   0.2288   3.6580   4.8383
     9.1316  10.6482  15.2514  15.7764  17.7165  18.5239  19.0165  23.9327
    25.5657  26.1804  26.3181  27.0384

          k = 0.4332-0.4042 0.0000 (  1004 PWs)   bands (ev):

    -9.8340  -9.7504  -3.8006  -3.7026  -0.1206  -0.0313   3.7639   4.8886
     9.1883  10.6277  15.5972  16.1885  17.7861  18.0147  19.2000  23.7043
    25.2140  26.0425  26.1170  26.8042

          k = 0.4221-0.4235 0.0000 (   996 PWs)   bands (ev):

    -9.7772  -9.6967  -3.7268  -3.6209  -0.3605  -0.3125   3.8739   4.9570
     9.2516  10.5778  15.9614  16.6405  17.5074  17.8738  19.4308  23.4140
    24.8734  25.8915  26.0215  26.5435

          k = 0.4109-0.4427 0.0000 (   996 PWs)   bands (ev):

    -9.7169  -9.6406  -3.6511  -3.5391  -0.6565  -0.6065   3.9940   5.0118
     9.3175  10.5138  16.3327  17.0211  17.1127  17.9625  19.7135  23.0995
    24.5056  25.7354  26.0078  26.2137

          k = 0.3998-0.4620 0.0000 (   996 PWs)   bands (ev):

    -9.6537  -9.5826  -3.5680  -3.4481  -0.9539  -0.9037   4.1262   5.0636
     9.3845  10.4368  16.5701  16.6938  17.5829  18.0584  20.0562  22.7895
    24.1443  25.5710  25.8555  26.0556

          k = 0.3887-0.4813 0.0000 (   990 PWs)   bands (ev):

    -9.5888  -9.5248  -3.4741  -3.3332  -1.2376  -1.1843   4.2704   5.1081
     9.4508  10.3468  16.1674  17.0369  18.0163  18.1733  20.4631  22.5051
    23.8232  25.3585  25.5443  26.1498

          k = 0.3775-0.5005 0.0000 (  1000 PWs)   bands (ev):

    -9.5311  -9.4747  -3.4110  -3.2346  -1.5261  -1.4533   4.4104   5.1341
     9.5134  10.2338  15.8247  17.3361  18.2201  18.3969  20.9259  22.2583
    23.5347  24.9622  25.3567  25.8247

          k = 0.3664-0.5198 0.0000 (  1001 PWs)   bands (ev):

    -9.4729  -9.4310  -3.3266  -3.1356  -1.7730  -1.6806   4.5528   5.1452
     9.5752  10.1135  15.5514  17.6232  18.3101  18.6523  21.4533  22.0613
    23.3138  24.5108  25.2460  25.5289

          k = 0.3553-0.5390 0.0000 (  1003 PWs)   bands (ev):

    -9.4252  -9.3953  -3.2553  -3.0427  -1.9577  -1.9033   4.7032   5.1255
     9.6381   9.9989  15.3545  17.8640  18.3706  18.7986  21.9201  21.9965
    23.1934  24.0512  25.1524  25.2985

          k = 0.3441-0.5583 0.0000 (   999 PWs)   bands (ev):

    -9.3892  -9.3743  -3.2069  -2.9685  -2.0678  -2.0443   4.8516   5.0721
     9.7071   9.8870  15.2374  18.0848  18.3767  18.8426  21.8354  22.5674
    23.1485  23.5854  25.0955  25.1482

          k = 0.3330-0.5775 0.0000 (  1005 PWs)   bands (ev):

    -9.3741  -9.3738  -3.2145  -2.9432  -2.1102  -2.1100   4.9748   4.9789
     9.7862   9.7893  15.1999  18.2577  18.2640  18.8210  21.8077  23.0943
    23.0972  23.1391  25.0759  25.0766

          k = 0.3330-0.5775 0.0387 (  1005 PWs)   bands (ev):

    -9.3739  -9.3736  -3.2093  -2.9485  -2.1111  -2.1110   4.9877   4.9916
     9.7546   9.7576  15.2576  18.3351  18.3412  18.6469  21.9132  23.0882
    23.0913  23.1286  24.9923  24.9924

          k = 0.3330-0.5775 0.0775 (   999 PWs)   bands (ev):

    -9.3728  -9.3725  -3.1896  -2.9636  -2.1122  -2.1121   5.0441   5.0476
     9.6815   9.6843  15.4293  18.2141  18.5525  18.5580  22.1531  23.0697
    23.0735  23.0971  24.7662  24.7673

          k = 0.3330-0.5775 0.1162 (   996 PWs)   bands (ev):

    -9.3709  -9.3707  -3.1366  -2.9976  -2.1070  -2.1069   5.0762   5.0788
     9.5794   9.5815  15.7105  17.6703  18.8458  18.8500  22.4218  23.0224
    23.0310  23.0387  24.4782  24.4804

          k = 0.3330-0.5775 0.1549 (   996 PWs)   bands (ev):

    -9.3729  -9.3728  -3.0994  -3.0318  -2.1131  -2.1131   5.1198   5.1212
     9.4957   9.4967  16.0917  17.0968  19.0919  19.0944  22.6469  22.9326
    22.9838  22.9855  24.2401  24.2418

          k = 0.3330-0.5775 0.1936 (  1002 PWs)   bands (ev):

    -9.3738  -9.3738  -3.0682  -3.0682  -2.1163  -2.1162   5.1108   5.1108
     9.4633   9.4633  16.5601  16.5601  19.1835  19.1835  22.8086  22.8087
    22.9526  22.9526  24.1475  24.1475

          k = 0.3108-0.5390 0.1936 (  1008 PWs)   bands (ev):

    -9.4226  -9.4225  -3.1195  -3.1195  -1.9744  -1.9744   5.0140   5.0140
     9.5338   9.5339  16.6393  16.6393  19.0766  19.0766  22.1196  22.1196
    23.2747  23.2747  24.4523  24.4523

          k = 0.2886-0.5005 0.1936 (   990 PWs)   bands (ev):

    -9.5672  -9.5671  -3.0793  -3.0793  -1.6313  -1.6313   4.7505   4.7506
     9.7886   9.7886  16.8294  16.8294  18.8915  18.8915  21.3761  21.3761
    23.1660  23.1660  25.1423  25.1423

          k = 0.2664-0.4620 0.1936 (   992 PWs)   bands (ev):

    -9.8189  -9.8188  -2.9252  -2.9252  -1.2142  -1.2141   4.2994   4.2994
    10.2121  10.2121  16.9840  16.9840  18.6858  18.6858  20.7144  20.7144
    22.9367  22.9367  25.7412  25.7412

          k = 0.2442-0.4235 0.1936 (  1004 PWs)   bands (ev):

   -10.1543 -10.1543  -2.6201  -2.6201  -0.7642  -0.7642   3.7370   3.7371
    10.7746  10.7746  16.9185  16.9185  18.5276  18.5276  20.2588  20.2588
    22.7530  22.7530  26.1478  26.1478

          k = 0.2220-0.3850 0.1936 (  1006 PWs)   bands (ev):

   -10.5342 -10.5341  -2.1524  -2.1524  -0.2637  -0.2637   3.1316   3.1316
    11.4336  11.4336  16.6374  16.6374  18.3028  18.3028  20.1298  20.1298
    22.7408  22.7408  26.2445  26.2445

          k = 0.1998-0.3465 0.1936 (  1004 PWs)   bands (ev):

   -10.9316 -10.9316  -1.5848  -1.5848   0.2703   0.2703   2.5403   2.5403
    12.1373  12.1373  16.2820  16.2820  17.9339  17.9339  20.1598  20.1598
    23.0319  23.0319  25.8482  25.8482

          k = 0.1776-0.3080 0.1936 (  1002 PWs)   bands (ev):

   -11.3245 -11.3245  -0.9248  -0.9248   0.8163   0.8163   1.9745   1.9745
    12.7903  12.7903  15.9817  15.9817  17.5267  17.5268  20.0938  20.0938
    23.6531  23.6531  25.0866  25.0866

          k = 0.1554-0.2695 0.1936 (  1006 PWs)   bands (ev):

   -11.6967 -11.6966  -0.2178  -0.2178   1.3048   1.3048   1.4977   1.4977
    13.2759  13.2759  15.8699  15.8699  17.1600  17.1600  19.8703  19.8703
    23.8601  23.8601  24.8308  24.8308

          k = 0.1332-0.2310 0.1936 (  1006 PWs)   bands (ev):

   -12.0353 -12.0353   0.4858   0.4858   1.0169   1.0169   1.9005   1.9006
    13.4663  13.4663  16.0559  16.0559  16.8767  16.8767  19.5093  19.5093
    22.9443  22.9443  25.8864  25.8864

          k = 0.1110-0.1925 0.1936 (  1006 PWs)   bands (ev):

   -12.3309 -12.3308   0.4750   0.4750   1.3783   1.3783   2.4077   2.4077
    13.4058  13.4058  16.3958  16.3958  16.7706  16.7706  19.0213  19.0213
    22.0610  22.0611  27.1368  27.1368

          k = 0.0888-0.1540 0.1936 (   998 PWs)   bands (ev):

   -12.5787 -12.5787   0.1627   0.1627   2.1027   2.1027   2.8779   2.8779
    13.2306  13.2306  16.4602  16.4602  17.0973  17.0973  18.4389  18.4389
    21.3886  21.3886  28.4224  28.4224

          k = 0.0666-0.1155 0.1936 (  1002 PWs)   bands (ev):

   -12.7759 -12.7759  -0.1045  -0.1044   2.7625   2.7626   3.2557   3.2558
    13.0240  13.0240  16.4498  16.4498  17.3637  17.3638  17.9026  17.9026
    20.9436  20.9436  29.5301  29.5301

          k = 0.0444-0.0770 0.1936 (  1010 PWs)   bands (ev):

   -12.9193 -12.9193  -0.2982  -0.2982   3.2855   3.2855   3.5312   3.5313
    12.8422  12.8422  16.4840  16.4840  17.0621  17.0621  17.8687  17.8687
    20.6993  20.6993  29.9619  29.9619

          k = 0.0222-0.0385 0.1936 (  1002 PWs)   bands (ev):

   -13.0038 -13.0038  -0.4042  -0.4042   3.6692   3.6693   3.7202   3.7202
    12.7238  12.7238  16.5454  16.5454  16.6974  16.6974  17.9738  17.9738
    20.6090  20.6091  29.8900  29.8900

          k = 0.0000 0.0000 0.1936 (  1008 PWs)   bands (ev):

   -13.0337 -13.0337  -0.4456  -0.4455   3.7753   3.7753   3.7753   3.7753
    12.6783  12.6783  16.5619  16.5619  16.5619  16.5619  17.9817  17.9817
    20.5900  20.5900  29.8300  29.8300

          k = 0.0333-0.0192 0.1936 (  1002 PWs)   bands (ev):

   -13.0109 -13.0109  -0.4120  -0.4120   3.6966   3.6966   3.7320   3.7321
    12.7132  12.7132  16.5529  16.5529  16.6660  16.6660  17.9774  17.9774
    20.6036  20.6036  29.8765  29.8765

          k = 0.0667-0.0385 0.1936 (  1010 PWs)   bands (ev):

   -12.9477 -12.9477  -0.3365  -0.3365   3.3886   3.3887   3.6114   3.6114
    12.8014  12.8014  16.4843  16.4843  16.9711  16.9711  17.8893  17.8893
    20.6616  20.6616  29.9614  29.9614

          k = 0.1000-0.0577 0.1936 (  1004 PWs)   bands (ev):

   -12.8404 -12.8403  -0.1958  -0.1958   2.9824   2.9824   3.4121   3.4122
    12.9417  12.9417  16.4005  16.4005  17.4462  17.4462  17.7517  17.7517
    20.8169  20.8169  29.8350  29.8350

          k = 0.1333-0.0770 0.1936 (  1008 PWs)   bands (ev):

   -12.6927 -12.6927   0.0041   0.0041   2.4117   2.4118   3.1309   3.1309
    13.0998  13.0998  16.2761  16.2761  17.5100  17.5100  18.0837  18.0837
    21.0768  21.0768  29.1975  29.1975

          k = 0.1667-0.0962 0.1936 (  1004 PWs)   bands (ev):

   -12.5032 -12.5032   0.2544   0.2544   1.7647   1.7647   2.8529   2.8529
    13.2551  13.2551  16.0918  16.0918  17.2174  17.2174  18.8723  18.8723
    21.4484  21.4484  28.3165  28.3165

          k = 0.2000-0.1155 0.1936 (  1010 PWs)   bands (ev):

   -12.2775 -12.2775   0.5135   0.5136   1.0803   1.0803   2.5387   2.5387
    13.3550  13.3550  15.7980  15.7980  16.9864  16.9864  19.7533  19.7534
    21.8767  21.8767  27.4234  27.4234

          k = 0.2333-0.1347 0.1936 (   994 PWs)   bands (ev):

   -12.0141 -12.0141   0.2294   0.2294   1.0159   1.0159   2.2691   2.2691
    13.3664  13.3665  15.4217  15.4217  16.9076  16.9076  20.7455  20.7455
    22.3480  22.3481  26.6137  26.6137

          k = 0.2667-0.1540 0.1936 (   992 PWs)   bands (ev):

   -11.7244 -11.7244  -0.4936  -0.4935   1.3988   1.3988   1.9758   1.9758
    13.1527  13.1527  15.0881  15.0881  16.9525  16.9525  21.7797  21.7797
    22.7833  22.7833  25.9256  25.9256

          k = 0.3000-0.1732 0.1936 (   996 PWs)   bands (ev):

   -11.4104 -11.4104  -1.2394  -1.2394   1.7047   1.7047   1.8393   1.8394
    12.6877  12.6877  14.8960  14.8960  17.1036  17.1036  22.8421  22.8421
    23.0720  23.0720  25.4269  25.4269

          k = 0.3333-0.1925 0.1936 (   998 PWs)   bands (ev):

   -11.0839 -11.0839  -1.9490  -1.9490   1.4650   1.4651   2.3188   2.3188
    12.0559  12.0559  14.8152  14.8153  17.3471  17.3471  23.1009  23.1010
    23.9030  23.9030  25.2130  25.2130

          k = 0.3667-0.2117 0.1936 (  1002 PWs)   bands (ev):

   -10.7578 -10.7577  -2.5857  -2.5857   1.2529   1.2529   2.8060   2.8060
    11.3526  11.3526  14.7844  14.7844  17.6394  17.6394  22.8876  22.8876
    24.9165  24.9165  25.2295  25.2295

          k = 0.4000-0.2309 0.1936 (  1010 PWs)   bands (ev):

   -10.4530 -10.4529  -3.1552  -3.1551   1.0796   1.0796   3.2725   3.2725
    10.6735  10.6735  14.7660  14.7660  17.9565  17.9565  22.5370  22.5370
    25.3413  25.3413  25.8259  25.8259

          k = 0.4333-0.2502 0.1936 (  1002 PWs)   bands (ev):

   -10.1948 -10.1947  -3.5743  -3.5743   0.9579   0.9579   3.7055   3.7055
    10.1023  10.1023  14.7584  14.7584  18.2727  18.2727  22.1963  22.1963
    25.4690  25.4690  26.5278  26.5278

          k = 0.4667-0.2694 0.1936 (   994 PWs)   bands (ev):

   -10.0180 -10.0180  -3.8593  -3.8592   0.9004   0.9004   4.0311   4.0312
     9.6992   9.6992  14.7529  14.7529  18.5215  18.5215  21.9411  21.9411
    25.5294  25.5294  26.9313  26.9314

          k = 0.5000-0.2887 0.1936 (   992 PWs)   bands (ev):

    -9.9554  -9.9554  -3.9536  -3.9536   0.8766   0.8766   4.1464   4.1464
     9.5523   9.5523  14.7518  14.7518  18.6184  18.6184  21.8452  21.8452
    25.5489  25.5489  27.0446  27.0446

     Writing output data file hbn.save

     init_run     :      0.03s CPU      0.03s WALL (       1 calls)
     electrons    :     28.30s CPU     26.61s WALL (       1 calls)

     Called by init_run:
     wfcinit      :      0.00s CPU      0.00s WALL (       1 calls)
     potinit      :      0.01s CPU      0.01s WALL (       1 calls)

     Called by electrons:
     c_bands      :     28.29s CPU     26.61s WALL (       1 calls)
     v_of_rho     :      0.00s CPU      0.00s WALL (       1 calls)
     v_h          :      0.00s CPU      0.00s WALL (       1 calls)
     v_xc         :      0.00s CPU      0.00s WALL (       1 calls)

     Called by c_bands:
     init_us_2    :      0.01s CPU      0.01s WALL (      81 calls)
     cegterg      :     26.36s CPU     24.62s WALL (      87 calls)

     Called by sum_band:

     Called by *egterg:
     h_psi        :     19.61s CPU     20.02s WALL (    1529 calls)
     g_psi        :      0.18s CPU      0.19s WALL (    1361 calls)
     cdiaghg      :      2.79s CPU      2.85s WALL (    1442 calls)
     cegterg:over :      2.28s CPU      1.33s WALL (    1361 calls)
     cegterg:upda :      1.88s CPU      1.13s WALL (    1361 calls)
     cegterg:last :      1.08s CPU      0.59s WALL (     299 calls)

     Called by h_psi:
     h_psi:vloc   :     19.24s CPU     19.64s WALL (    1529 calls)
     h_psi:vnl    :      0.31s CPU      0.32s WALL (    1529 calls)
     add_vuspsi   :      0.18s CPU      0.18s WALL (    1529 calls)

     General routines
     calbec       :      0.13s CPU      0.13s WALL (    1529 calls)
     fft          :      0.00s CPU      0.00s WALL (       3 calls)
     fftw         :     17.86s CPU     18.22s WALL (   36544 calls)
     davcio       :      0.00s CPU      0.07s WALL (     162 calls)

     Parallel routines
     fft_scatter  :      0.62s CPU      0.64s WALL (   36547 calls)

     PWSCF        :    29.20s CPU        28.02s WALL


   This run was terminated on:  16: 6:36  23Mar2017            

=------------------------------------------------------------------------------=
   JOB DONE.
=------------------------------------------------------------------------------=
