
     Program PWSCF v.5.2.0 starts on 24Mar2017 at 17:13:40 

     This program is part of the open-source Quantum ESPRESSO suite
     for quantum simulation of materials; please cite
         "P. Giannozzi et al., J. Phys.:Condens. Matter 21 395502 (2009);
          URL http://www.quantum-espresso.org", 
     in publications or presentations arising from this work. More details at
     http://www.quantum-espresso.org/quote

     Parallel version (MPI & OpenMP), running on       1 processor cores
     Number of MPI processes:                 1
     Threads/MPI process:                     1
     Waiting for input...
     Reading input from standard input

     Current dimensions of program PWSCF are:
     Max number of different atomic species (ntypx) = 10
     Max number of k-points (npk) =  40000
     Max angular momentum in pseudopotentials (lmaxx) =  3

     Atomic positions and unit cell read from directory:
     ./hBN_2D.save/


     Subspace diagonalization in iterative solution of the eigenvalue problem:
     a serial algorithm will be used


     G-vector sticks info
     --------------------
     sticks:   dense  smooth     PW     G-vecs:    dense   smooth      PW
     Sum         253     253     85                21817    21817    4131



     bravais-lattice index     =            4
     lattice parameter (alat)  =       4.7160  a.u.
     unit-cell volume          =     635.8432 (a.u.)^3
     number of atoms/cell      =            2
     number of atomic types    =            2
     number of electrons       =         8.00
     number of Kohn-Sham states=           60
     kinetic-energy cutoff     =      40.0000  Ry
     charge density cutoff     =     160.0000  Ry
     Exchange-correlation      =  SLA  PZ   NOGX NOGC ( 1  1  0  0 0 0)

     celldm(1)=   4.716000  celldm(2)=   0.000000  celldm(3)=   7.000000
     celldm(4)=   0.000000  celldm(5)=   0.000000  celldm(6)=   0.000000

     crystal axes: (cart. coord. in units of alat)
               a(1) = (   1.000000   0.000000   0.000000 )  
               a(2) = (  -0.500000   0.866025   0.000000 )  
               a(3) = (   0.000000   0.000000   7.000000 )  

     reciprocal axes: (cart. coord. in units 2 pi/alat)
               b(1) = (  1.000000  0.577350 -0.000000 )  
               b(2) = (  0.000000  1.154701  0.000000 )  
               b(3) = (  0.000000 -0.000000  0.142857 )  


     PseudoPot. # 1 for B  read from file:
     ./Pseudos/B.pz-vbc.UPF
     MD5 check sum: b59596b5d63edeea6a2b3a0beace49c5
     Pseudo is Norm-conserving, Zval =  3.0
     Generated by new atomic code, or converted to UPF format
     Using radial grid of  157 points,  1 beta functions with: 
                l(1) =   0

     PseudoPot. # 2 for N  read from file:
     ./Pseudos/N.pz-vbc.UPF
     MD5 check sum: f7a51f6f78412844d17f6e69b370b417
     Pseudo is Norm-conserving, Zval =  5.0
     Generated by new atomic code, or converted to UPF format
     Using radial grid of  161 points,  1 beta functions with: 
                l(1) =   0

     atomic species   valence    mass     pseudopotential
        B              3.00    10.00000     B ( 1.00)
        N              5.00    14.00000     N ( 1.00)

     12 Sym. Ops. (no inversion) found


                                    s                        frac. trans.

      isym =  1     identity                                     

 cryst.   s( 1) = (     1          0          0      )
                  (     0          1          0      )
                  (     0          0          1      )

 cart.    s( 1) = (  1.0000000  0.0000000  0.0000000 )
                  (  0.0000000  1.0000000  0.0000000 )
                  (  0.0000000  0.0000000  1.0000000 )


      isym =  2     180 deg rotation - cart. axis [0,1,0]        

 cryst.   s( 2) = (    -1          0          0      )
                  (     1          1          0      )
                  (     0          0         -1      )

 cart.    s( 2) = ( -1.0000000  0.0000000  0.0000000 )
                  (  0.0000000  1.0000000  0.0000000 )
                  (  0.0000000  0.0000000 -1.0000000 )


      isym =  3     120 deg rotation - cryst. axis [0,0,1]       

 cryst.   s( 3) = (     0          1          0      )
                  (    -1         -1          0      )
                  (     0          0          1      )

 cart.    s( 3) = ( -0.5000000 -0.8660254  0.0000000 )
                  (  0.8660254 -0.5000000  0.0000000 )
                  (  0.0000000  0.0000000  1.0000000 )


      isym =  4     120 deg rotation - cryst. axis [0,0,-1]      

 cryst.   s( 4) = (    -1         -1          0      )
                  (     1          0          0      )
                  (     0          0          1      )

 cart.    s( 4) = ( -0.5000000  0.8660254  0.0000000 )
                  ( -0.8660254 -0.5000000  0.0000000 )
                  (  0.0000000  0.0000000  1.0000000 )


      isym =  5     180 deg rotation - cryst. axis [1,-1,0]      

 cryst.   s( 5) = (     0         -1          0      )
                  (    -1          0          0      )
                  (     0          0         -1      )

 cart.    s( 5) = (  0.5000000 -0.8660254  0.0000000 )
                  ( -0.8660254 -0.5000000  0.0000000 )
                  (  0.0000000  0.0000000 -1.0000000 )


      isym =  6     180 deg rotation - cryst. axis [2,1,0]       

 cryst.   s( 6) = (     1          1          0      )
                  (     0         -1          0      )
                  (     0          0         -1      )

 cart.    s( 6) = (  0.5000000  0.8660254  0.0000000 )
                  (  0.8660254 -0.5000000  0.0000000 )
                  (  0.0000000  0.0000000 -1.0000000 )


      isym =  7     inv. 180 deg rotation - cart. axis [0,0,1]   

 cryst.   s( 7) = (     1          0          0      )
                  (     0          1          0      )
                  (     0          0         -1      )

 cart.    s( 7) = (  1.0000000  0.0000000  0.0000000 )
                  (  0.0000000  1.0000000  0.0000000 )
                  (  0.0000000  0.0000000 -1.0000000 )


      isym =  8     inv. 180 deg rotation - cart. axis [1,0,0]   

 cryst.   s( 8) = (    -1          0          0      )
                  (     1          1          0      )
                  (     0          0          1      )

 cart.    s( 8) = ( -1.0000000  0.0000000  0.0000000 )
                  (  0.0000000  1.0000000  0.0000000 )
                  (  0.0000000  0.0000000  1.0000000 )


      isym =  9     inv.  60 deg rotation - cryst. axis [0,0,1]  

 cryst.   s( 9) = (    -1         -1          0      )
                  (     1          0          0      )
                  (     0          0         -1      )

 cart.    s( 9) = ( -0.5000000  0.8660254  0.0000000 )
                  ( -0.8660254 -0.5000000  0.0000000 )
                  (  0.0000000  0.0000000 -1.0000000 )


      isym = 10     inv.  60 deg rotation - cryst. axis [0,0,-1] 

 cryst.   s(10) = (     0          1          0      )
                  (    -1         -1          0      )
                  (     0          0         -1      )

 cart.    s(10) = ( -0.5000000 -0.8660254  0.0000000 )
                  (  0.8660254 -0.5000000  0.0000000 )
                  (  0.0000000  0.0000000 -1.0000000 )


      isym = 11     inv. 180 deg rotation - cryst. axis [0,1,0]  

 cryst.   s(11) = (     1          1          0      )
                  (     0         -1          0      )
                  (     0          0          1      )

 cart.    s(11) = (  0.5000000  0.8660254  0.0000000 )
                  (  0.8660254 -0.5000000  0.0000000 )
                  (  0.0000000  0.0000000  1.0000000 )


      isym = 12     inv. 180 deg rotation - cryst. axis [1,1,0]  

 cryst.   s(12) = (     0         -1          0      )
                  (    -1          0          0      )
                  (     0          0          1      )

 cart.    s(12) = (  0.5000000 -0.8660254  0.0000000 )
                  ( -0.8660254 -0.5000000  0.0000000 )
                  (  0.0000000  0.0000000  1.0000000 )


     point group D_3h (-62m)
     there are  6 classes
     the character table:

       E     2C3   3C2   s_h   2S3   3s_v 
A'_1   1.00  1.00  1.00  1.00  1.00  1.00
A'_2   1.00  1.00 -1.00  1.00  1.00 -1.00
E'     2.00 -1.00  0.00  2.00 -1.00  0.00
A''1   1.00  1.00  1.00 -1.00 -1.00 -1.00
A''2   1.00  1.00 -1.00 -1.00 -1.00  1.00
E''    2.00 -1.00  0.00 -2.00  1.00  0.00

     the symmetry operations in each class and the name of the first element:

     E        1
          identity                                               
     2C3      3    4
          120 deg rotation - cryst. axis [0,0,1]                 
     3C2      2    6    5
          180 deg rotation - cart. axis [0,1,0]                  
     s_h      7
          inv. 180 deg rotation - cart. axis [0,0,1]             
     2S3      9   10
          inv.  60 deg rotation - cryst. axis [0,0,1]            
     3s_v     8   11   12
          inv. 180 deg rotation - cart. axis [1,0,0]             

   Cartesian axes

     site n.     atom                  positions (alat units)
         1           B   tau(   1) = (   0.5000001   0.2886751   0.0000000  )
         2           N   tau(   2) = (  -0.5000001  -0.2886751   0.0000000  )

   Crystallographic axes

     site n.     atom                  positions (cryst. coord.)
         1           B   tau(   1) = (  0.6666667  0.3333333  0.0000000  )
         2           N   tau(   2) = ( -0.6666667 -0.3333333  0.0000000  )

     number of k points=     7
                       cart. coord. in units 2pi/alat
        k(    1) = (   0.0000000   0.0000000   0.0000000), wk =   0.0555556
        k(    2) = (   0.0000000   0.1924501   0.0000000), wk =   0.3333333
        k(    3) = (   0.0000000   0.3849002   0.0000000), wk =   0.3333333
        k(    4) = (   0.0000000  -0.5773503   0.0000000), wk =   0.1666667
        k(    5) = (   0.1666667   0.2886751   0.0000000), wk =   0.3333333
        k(    6) = (   0.1666667   0.4811252   0.0000000), wk =   0.6666667
        k(    7) = (   0.3333333   0.5773503   0.0000000), wk =   0.1111111

                       cryst. coord.
        k(    1) = (   0.0000000   0.0000000   0.0000000), wk =   0.0555556
        k(    2) = (   0.0000000   0.1666667   0.0000000), wk =   0.3333333
        k(    3) = (   0.0000000   0.3333333   0.0000000), wk =   0.3333333
        k(    4) = (   0.0000000  -0.5000000   0.0000000), wk =   0.1666667
        k(    5) = (   0.1666667   0.1666667   0.0000000), wk =   0.3333333
        k(    6) = (   0.1666667   0.3333333   0.0000000), wk =   0.6666667
        k(    7) = (   0.3333333   0.3333333   0.0000000), wk =   0.1111111

     Dense  grid:    21817 G-vectors     FFT dimensions: (  20,  20, 135)

     Largest allocated arrays     est. size (Mb)     dimensions
        Kohn-Sham Wavefunctions         2.50 Mb     (    2736,   60)
        NL pseudopotentials             0.08 Mb     (    2736,    2)
        Each V/rho on FFT grid          0.82 Mb     (   54000)
        Each G-vector array             0.17 Mb     (   21817)
        G-vector shells                 0.01 Mb     (    1080)
     Largest temporary arrays     est. size (Mb)     dimensions
        Auxiliary wavefunctions        10.02 Mb     (    2736,  240)
        Each subspace H/S matrix        0.88 Mb     (     240,  240)
        Each <psi_i|beta_j> matrix      0.00 Mb     (       2,   60)

     The potential is recalculated from file :
     ./hBN_2D.save/charge-density.dat

     Starting wfc are    8 randomized atomic wfcs +   52 random wfc

     Band Structure Calculation
     Davidson diagonalization with overlap

     Computing kpt #:     1
     total cpu time spent up to now is        1.9 secs

     Computing kpt #:     2
     total cpu time spent up to now is        3.5 secs

     Computing kpt #:     3
     total cpu time spent up to now is        5.1 secs

     Computing kpt #:     4
     total cpu time spent up to now is        6.6 secs

     Computing kpt #:     5
     total cpu time spent up to now is        8.2 secs

     Computing kpt #:     6
     total cpu time spent up to now is       10.0 secs

     Computing kpt #:     7
     total cpu time spent up to now is       11.6 secs

     ethr =  5.00E-06,  avg # of iterations =  9.6

     total cpu time spent up to now is       11.6 secs

     End of band structure calculation

          k = 0.0000 0.0000 0.0000 (  2731 PWs)   bands (ev):

   -22.1160  -9.4683  -5.3069  -5.3069   0.6557   1.8008   2.0628   3.3655
     3.8279   6.0488   6.5998   7.4779   7.4779   8.9385   9.3233  11.1014
    12.0115  15.4822  16.7710  21.0437  21.1449  22.9998  25.7101  25.7101
    26.8874  28.6584  28.6584  30.0692  30.5555  31.9831  31.9831  32.7589
    32.7589  33.1122  33.4333  33.7625  34.2034  34.2034  34.2550  34.2550
    34.2879  34.2879  34.3018  34.3550  34.4652  34.4652  34.5228  35.2033
    35.7603  35.7912  35.7912  35.9617  35.9617  36.0287  36.0287  36.1776
    36.2722  36.2722  36.6509  37.2972

     occupation numbers 
     1.0000   1.0000   1.0000   1.0000   0.0000   0.0000   0.0000   0.0000
     0.0000   0.0000   0.0000   0.0000   0.0000   0.0000   0.0000   0.0000
     0.0000   0.0000   0.0000   0.0000   0.0000   0.0000   0.0000   0.0000
     0.0000   0.0000   0.0000   0.0000   0.0000   0.0000   0.0000   0.0000
     0.0000   0.0000   0.0000   0.0000   0.0000   0.0000   0.0000   0.0000
     0.0000   0.0000   0.0000   0.0000   0.0000   0.0000   0.0000   0.0000
     0.0000   0.0000   0.0000   0.0000   0.0000   0.0000   0.0000   0.0000
     0.0000   0.0000   0.0000   0.0000

          k = 0.0000 0.1925 0.0000 (  2724 PWs)   bands (ev):

   -21.5875  -8.7361  -7.3624  -6.2475   1.5657   2.6408   2.9584   4.1764
     4.7179   6.5023   6.8766   7.8267   8.1983   9.7838  10.7428  11.3684
    13.1050  16.0075  17.6886  19.9922  22.0287  22.5452  22.5550  23.6728
    24.0018  24.5859  24.6480  26.1500  26.4246  27.4275  28.0093  28.8982
    29.2034  29.5374  29.6944  29.7608  29.8696  29.9944  30.4208  30.9533
    31.4643  31.5383  31.9361  32.0638  33.3630  33.5036  33.5609  34.3644
    34.4801  34.8510  35.0689  36.7204  37.8788  37.9253  38.0526  38.6832
    38.7515  38.8391  39.0027  39.2439

     occupation numbers 
     1.0000   1.0000   1.0000   1.0000   0.0000   0.0000   0.0000   0.0000
     0.0000   0.0000   0.0000   0.0000   0.0000   0.0000   0.0000   0.0000
     0.0000   0.0000   0.0000   0.0000   0.0000   0.0000   0.0000   0.0000
     0.0000   0.0000   0.0000   0.0000   0.0000   0.0000   0.0000   0.0000
     0.0000   0.0000   0.0000   0.0000   0.0000   0.0000   0.0000   0.0000
     0.0000   0.0000   0.0000   0.0000   0.0000   0.0000   0.0000   0.0000
     0.0000   0.0000   0.0000   0.0000   0.0000   0.0000   0.0000   0.0000
     0.0000   0.0000   0.0000   0.0000

          k = 0.0000 0.3849 0.0000 (  2722 PWs)   bands (ev):

   -20.1735 -11.0273  -7.6486  -6.7176   3.0520   4.0087   5.5495   5.5777
     6.3494   7.0670   7.6352   9.7787  10.4319  13.0353  13.2122  14.8296
    14.8394  15.1674  16.1971  16.7949  16.9531  18.1136  18.6357  19.5488
    19.9790  20.2450  21.4884  21.7384  24.3640  24.7367  25.3779  25.6055
    25.6470  26.4770  26.9727  27.0571  27.0804  27.2099  27.7507  28.2048
    28.7896  28.9305  29.3371  29.8005  31.0531  31.1429  31.6801  31.9545
    32.3929  32.4846  33.7517  34.2927  35.4464  36.0872  36.3884  36.5963
    37.2586  37.9678  38.0618  39.8176

     occupation numbers 
     1.0000   1.0000   1.0000   1.0000   0.0000   0.0000   0.0000   0.0000
     0.0000   0.0000   0.0000   0.0000   0.0000   0.0000   0.0000   0.0000
     0.0000   0.0000   0.0000   0.0000   0.0000   0.0000   0.0000   0.0000
     0.0000   0.0000   0.0000   0.0000   0.0000   0.0000   0.0000   0.0000
     0.0000   0.0000   0.0000   0.0000   0.0000   0.0000   0.0000   0.0000
     0.0000   0.0000   0.0000   0.0000   0.0000   0.0000   0.0000   0.0000
     0.0000   0.0000   0.0000   0.0000   0.0000   0.0000   0.0000   0.0000
     0.0000   0.0000   0.0000   0.0000

          k = 0.0000-0.5774 0.0000 (  2736 PWs)   bands (ev):

   -19.0512 -13.0503  -8.2435  -4.9128   0.5964   5.5098   8.4972   9.0025
     9.3364   9.9345  10.0849  10.1457  10.9925  11.5082  11.7373  11.9971
    13.2667  14.3163  14.4065  15.0061  16.2042  17.6687  18.1923  18.2596
    19.0728  19.1061  19.9156  21.0700  23.0522  23.6481  24.3880  24.5007
    24.5768  25.5382  26.0818  26.1838  26.2253  26.3180  26.6583  27.4181
    27.8691  28.0413  28.2945  28.9473  29.8926  30.6446  30.6820  31.0704
    31.3621  31.4457  31.8345  33.3571  33.9949  35.2195  35.5140  35.6409
    35.8558  37.7226  37.9784  38.6750

     occupation numbers 
     1.0000   1.0000   1.0000   1.0000   0.0000   0.0000   0.0000   0.0000
     0.0000   0.0000   0.0000   0.0000   0.0000   0.0000   0.0000   0.0000
     0.0000   0.0000   0.0000   0.0000   0.0000   0.0000   0.0000   0.0000
     0.0000   0.0000   0.0000   0.0000   0.0000   0.0000   0.0000   0.0000
     0.0000   0.0000   0.0000   0.0000   0.0000   0.0000   0.0000   0.0000
     0.0000   0.0000   0.0000   0.0000   0.0000   0.0000   0.0000   0.0000
     0.0000   0.0000   0.0000   0.0000   0.0000   0.0000   0.0000   0.0000
     0.0000   0.0000   0.0000   0.0000

          k = 0.1667 0.2887 0.0000 (  2717 PWs)   bands (ev):

   -20.6015  -9.6506  -7.9934  -7.3428   3.3126   3.7996   4.7420   5.0214
     6.3557   6.4800   8.1987   8.9953   9.1005  10.7765  12.5351  13.7094
    15.0700  15.4608  18.1442  19.0605  19.6505  20.0437  20.2314  20.8648
    20.9585  21.0120  21.6890  22.6257  22.6535  22.8286  23.6502  24.4285
    24.8231  25.4760  25.9116  26.0349  26.8409  26.9646  29.0359  29.7449
    29.9052  30.0476  30.3187  32.1395  32.6863  34.1553  34.5549  34.8827
    35.2197  35.5298  36.1053  36.7012  36.9208  36.9563  36.9881  37.8998
    38.3816  38.5310  38.6832  39.3122

     occupation numbers 
     1.0000   1.0000   1.0000   1.0000   0.0000   0.0000   0.0000   0.0000
     0.0000   0.0000   0.0000   0.0000   0.0000   0.0000   0.0000   0.0000
     0.0000   0.0000   0.0000   0.0000   0.0000   0.0000   0.0000   0.0000
     0.0000   0.0000   0.0000   0.0000   0.0000   0.0000   0.0000   0.0000
     0.0000   0.0000   0.0000   0.0000   0.0000   0.0000   0.0000   0.0000
     0.0000   0.0000   0.0000   0.0000   0.0000   0.0000   0.0000   0.0000
     0.0000   0.0000   0.0000   0.0000   0.0000   0.0000   0.0000   0.0000
     0.0000   0.0000   0.0000   0.0000

          k = 0.1667 0.4811 0.0000 (  2716 PWs)   bands (ev):

   -19.1305 -12.2349  -9.4105  -5.1033   1.3572   6.5150   7.8646   8.1593
     8.5488   9.3028  10.0989  10.9228  11.4668  12.7927  13.0705  13.6186
    13.8726  14.5427  15.2242  15.8556  16.6504  16.9266  17.7654  17.8988
    18.6728  19.1019  19.1835  20.0496  20.2789  21.0903  21.3578  22.0989
    22.5060  23.5165  23.7479  24.0737  24.9251  25.3211  27.0470  28.0476
    28.0583  28.4761  29.0355  29.5747  32.0179  32.9084  33.2614  33.7927
    34.4930  34.9071  35.1289  35.4135  36.4241  36.4421  36.6555  37.3537
    38.2691  39.2021  39.7988  39.8567

     occupation numbers 
     1.0000   1.0000   1.0000   1.0000   0.0000   0.0000   0.0000   0.0000
     0.0000   0.0000   0.0000   0.0000   0.0000   0.0000   0.0000   0.0000
     0.0000   0.0000   0.0000   0.0000   0.0000   0.0000   0.0000   0.0000
     0.0000   0.0000   0.0000   0.0000   0.0000   0.0000   0.0000   0.0000
     0.0000   0.0000   0.0000   0.0000   0.0000   0.0000   0.0000   0.0000
     0.0000   0.0000   0.0000   0.0000   0.0000   0.0000   0.0000   0.0000
     0.0000   0.0000   0.0000   0.0000   0.0000   0.0000   0.0000   0.0000
     0.0000   0.0000   0.0000   0.0000

          k = 0.3333 0.5774 0.0000 (  2709 PWs)   bands (ev):

   -18.4661 -12.1697 -11.2001  -3.9150   0.4861   8.0200   9.4905  10.5614
    11.2265  12.2213  12.5880  12.6344  12.6937  12.7852  13.0541  13.6702
    13.8787  13.9164  13.9998  14.1838  14.6315  14.9143  15.7360  15.8899
    16.5675  17.0387  17.6085  18.0293  18.7077  18.7209  20.3090  20.9913
    21.7320  22.2446  22.6440  22.6767  24.3343  24.9991  25.9660  26.9246
    27.4799  27.6690  27.7323  30.3242  31.7264  33.1396  33.6324  33.6345
    33.8750  35.2505  35.9331  37.9850  39.4230  39.8954  39.9669  40.3086
    40.9178  41.3970  41.4367  42.7355

     occupation numbers 
     1.0000   1.0000   1.0000   1.0000   0.0000   0.0000   0.0000   0.0000
     0.0000   0.0000   0.0000   0.0000   0.0000   0.0000   0.0000   0.0000
     0.0000   0.0000   0.0000   0.0000   0.0000   0.0000   0.0000   0.0000
     0.0000   0.0000   0.0000   0.0000   0.0000   0.0000   0.0000   0.0000
     0.0000   0.0000   0.0000   0.0000   0.0000   0.0000   0.0000   0.0000
     0.0000   0.0000   0.0000   0.0000   0.0000   0.0000   0.0000   0.0000
     0.0000   0.0000   0.0000   0.0000   0.0000   0.0000   0.0000   0.0000
     0.0000   0.0000   0.0000   0.0000

     highest occupied, lowest unoccupied level (ev):    -3.9150    0.4861

     Writing output data file hBN_2D.save

     init_run     :      0.04s CPU      0.05s WALL (       1 calls)
     electrons    :     13.74s CPU     11.47s WALL (       1 calls)

     Called by init_run:
     wfcinit      :      0.00s CPU      0.00s WALL (       1 calls)
     potinit      :      0.01s CPU      0.02s WALL (       1 calls)

     Called by electrons:
     c_bands      :     13.74s CPU     11.47s WALL (       1 calls)
     v_of_rho     :      0.01s CPU      0.01s WALL (       1 calls)
     v_h          :      0.00s CPU      0.00s WALL (       1 calls)
     v_xc         :      0.00s CPU      0.00s WALL (       1 calls)

     Called by c_bands:
     init_us_2    :      0.00s CPU      0.00s WALL (       7 calls)
     cegterg      :     12.55s CPU     10.35s WALL (       7 calls)

     Called by sum_band:

     Called by *egterg:
     h_psi        :      7.38s CPU      7.46s WALL (      81 calls)
     g_psi        :      0.06s CPU      0.06s WALL (      67 calls)
     cdiaghg      :      1.63s CPU      1.35s WALL (      74 calls)
     cegterg:over :      1.99s CPU      1.07s WALL (      67 calls)
     cegterg:upda :      1.46s CPU      0.78s WALL (      67 calls)
     cegterg:last :      0.80s CPU      0.42s WALL (      17 calls)

     Called by h_psi:
     h_psi:vloc   :      7.25s CPU      7.37s WALL (      81 calls)
     h_psi:vnl    :      0.10s CPU      0.07s WALL (      81 calls)
     add_vuspsi   :      0.06s CPU      0.04s WALL (      81 calls)

     General routines
     calbec       :      0.04s CPU      0.03s WALL (      81 calls)
     fft          :      0.01s CPU      0.01s WALL (       3 calls)
     fftw         :      6.77s CPU      6.87s WALL (    6746 calls)
     davcio       :      0.00s CPU      0.02s WALL (      14 calls)

     Parallel routines
     fft_scatter  :      0.29s CPU      0.30s WALL (    6749 calls)

     PWSCF        :    13.89s CPU        11.71s WALL


   This run was terminated on:  17:13:51  24Mar2017            

=------------------------------------------------------------------------------=
   JOB DONE.
=------------------------------------------------------------------------------=
