
     Program PWSCF v.5.2.0 starts on 24Mar2017 at 17:13:33 

     This program is part of the open-source Quantum ESPRESSO suite
     for quantum simulation of materials; please cite
         "P. Giannozzi et al., J. Phys.:Condens. Matter 21 395502 (2009);
          URL http://www.quantum-espresso.org", 
     in publications or presentations arising from this work. More details at
     http://www.quantum-espresso.org/quote

     Parallel version (MPI & OpenMP), running on       1 processor cores
     Number of MPI processes:                 1
     Threads/MPI process:                     1
     Waiting for input...
     Reading input from standard input

     Current dimensions of program PWSCF are:
     Max number of different atomic species (ntypx) = 10
     Max number of k-points (npk) =  40000
     Max angular momentum in pseudopotentials (lmaxx) =  3

     Subspace diagonalization in iterative solution of the eigenvalue problem:
     a serial algorithm will be used


     G-vector sticks info
     --------------------
     sticks:   dense  smooth     PW     G-vecs:    dense   smooth      PW
     Sum         253     253     85                21817    21817    4471



     bravais-lattice index     =            4
     lattice parameter (alat)  =       4.7160  a.u.
     unit-cell volume          =     635.8432 (a.u.)^3
     number of atoms/cell      =            2
     number of atomic types    =            2
     number of electrons       =         8.00
     number of Kohn-Sham states=            4
     kinetic-energy cutoff     =      40.0000  Ry
     charge density cutoff     =     160.0000  Ry
     convergence threshold     =      1.0E-08
     mixing beta               =       0.7000
     number of iterations used =            8  plain     mixing
     Exchange-correlation      =  SLA  PZ   NOGX NOGC ( 1  1  0  0 0 0)

     celldm(1)=   4.716000  celldm(2)=   0.000000  celldm(3)=   7.000000
     celldm(4)=   0.000000  celldm(5)=   0.000000  celldm(6)=   0.000000

     crystal axes: (cart. coord. in units of alat)
               a(1) = (   1.000000   0.000000   0.000000 )  
               a(2) = (  -0.500000   0.866025   0.000000 )  
               a(3) = (   0.000000   0.000000   7.000000 )  

     reciprocal axes: (cart. coord. in units 2 pi/alat)
               b(1) = (  1.000000  0.577350 -0.000000 )  
               b(2) = (  0.000000  1.154701  0.000000 )  
               b(3) = (  0.000000 -0.000000  0.142857 )  


     PseudoPot. # 1 for B  read from file:
     ./Pseudos/B.pz-vbc.UPF
     MD5 check sum: b59596b5d63edeea6a2b3a0beace49c5
     Pseudo is Norm-conserving, Zval =  3.0
     Generated by new atomic code, or converted to UPF format
     Using radial grid of  157 points,  1 beta functions with: 
                l(1) =   0

     PseudoPot. # 2 for N  read from file:
     ./Pseudos/N.pz-vbc.UPF
     MD5 check sum: f7a51f6f78412844d17f6e69b370b417
     Pseudo is Norm-conserving, Zval =  5.0
     Generated by new atomic code, or converted to UPF format
     Using radial grid of  161 points,  1 beta functions with: 
                l(1) =   0

     atomic species   valence    mass     pseudopotential
        B              3.00    10.00000     B ( 1.00)
        N              5.00    14.00000     N ( 1.00)

     12 Sym. Ops. (no inversion) found


                                    s                        frac. trans.

      isym =  1     identity                                     

 cryst.   s( 1) = (     1          0          0      )
                  (     0          1          0      )
                  (     0          0          1      )

 cart.    s( 1) = (  1.0000000  0.0000000  0.0000000 )
                  (  0.0000000  1.0000000  0.0000000 )
                  (  0.0000000  0.0000000  1.0000000 )


      isym =  2     180 deg rotation - cart. axis [0,1,0]        

 cryst.   s( 2) = (    -1          0          0      )
                  (     1          1          0      )
                  (     0          0         -1      )

 cart.    s( 2) = ( -1.0000000  0.0000000  0.0000000 )
                  (  0.0000000  1.0000000  0.0000000 )
                  (  0.0000000  0.0000000 -1.0000000 )


      isym =  3     120 deg rotation - cryst. axis [0,0,1]       

 cryst.   s( 3) = (     0          1          0      )
                  (    -1         -1          0      )
                  (     0          0          1      )

 cart.    s( 3) = ( -0.5000000 -0.8660254  0.0000000 )
                  (  0.8660254 -0.5000000  0.0000000 )
                  (  0.0000000  0.0000000  1.0000000 )


      isym =  4     120 deg rotation - cryst. axis [0,0,-1]      

 cryst.   s( 4) = (    -1         -1          0      )
                  (     1          0          0      )
                  (     0          0          1      )

 cart.    s( 4) = ( -0.5000000  0.8660254  0.0000000 )
                  ( -0.8660254 -0.5000000  0.0000000 )
                  (  0.0000000  0.0000000  1.0000000 )


      isym =  5     180 deg rotation - cryst. axis [1,-1,0]      

 cryst.   s( 5) = (     0         -1          0      )
                  (    -1          0          0      )
                  (     0          0         -1      )

 cart.    s( 5) = (  0.5000000 -0.8660254  0.0000000 )
                  ( -0.8660254 -0.5000000  0.0000000 )
                  (  0.0000000  0.0000000 -1.0000000 )


      isym =  6     180 deg rotation - cryst. axis [2,1,0]       

 cryst.   s( 6) = (     1          1          0      )
                  (     0         -1          0      )
                  (     0          0         -1      )

 cart.    s( 6) = (  0.5000000  0.8660254  0.0000000 )
                  (  0.8660254 -0.5000000  0.0000000 )
                  (  0.0000000  0.0000000 -1.0000000 )


      isym =  7     inv. 180 deg rotation - cart. axis [0,0,1]   

 cryst.   s( 7) = (     1          0          0      )
                  (     0          1          0      )
                  (     0          0         -1      )

 cart.    s( 7) = (  1.0000000  0.0000000  0.0000000 )
                  (  0.0000000  1.0000000  0.0000000 )
                  (  0.0000000  0.0000000 -1.0000000 )


      isym =  8     inv. 180 deg rotation - cart. axis [1,0,0]   

 cryst.   s( 8) = (    -1          0          0      )
                  (     1          1          0      )
                  (     0          0          1      )

 cart.    s( 8) = ( -1.0000000  0.0000000  0.0000000 )
                  (  0.0000000  1.0000000  0.0000000 )
                  (  0.0000000  0.0000000  1.0000000 )


      isym =  9     inv.  60 deg rotation - cryst. axis [0,0,1]  

 cryst.   s( 9) = (    -1         -1          0      )
                  (     1          0          0      )
                  (     0          0         -1      )

 cart.    s( 9) = ( -0.5000000  0.8660254  0.0000000 )
                  ( -0.8660254 -0.5000000  0.0000000 )
                  (  0.0000000  0.0000000 -1.0000000 )


      isym = 10     inv.  60 deg rotation - cryst. axis [0,0,-1] 

 cryst.   s(10) = (     0          1          0      )
                  (    -1         -1          0      )
                  (     0          0         -1      )

 cart.    s(10) = ( -0.5000000 -0.8660254  0.0000000 )
                  (  0.8660254 -0.5000000  0.0000000 )
                  (  0.0000000  0.0000000 -1.0000000 )


      isym = 11     inv. 180 deg rotation - cryst. axis [0,1,0]  

 cryst.   s(11) = (     1          1          0      )
                  (     0         -1          0      )
                  (     0          0          1      )

 cart.    s(11) = (  0.5000000  0.8660254  0.0000000 )
                  (  0.8660254 -0.5000000  0.0000000 )
                  (  0.0000000  0.0000000  1.0000000 )


      isym = 12     inv. 180 deg rotation - cryst. axis [1,1,0]  

 cryst.   s(12) = (     0         -1          0      )
                  (    -1          0          0      )
                  (     0          0          1      )

 cart.    s(12) = (  0.5000000 -0.8660254  0.0000000 )
                  ( -0.8660254 -0.5000000  0.0000000 )
                  (  0.0000000  0.0000000  1.0000000 )


     point group D_3h (-62m)
     there are  6 classes
     the character table:

       E     2C3   3C2   s_h   2S3   3s_v 
A'_1   1.00  1.00  1.00  1.00  1.00  1.00
A'_2   1.00  1.00 -1.00  1.00  1.00 -1.00
E'     2.00 -1.00  0.00  2.00 -1.00  0.00
A''1   1.00  1.00  1.00 -1.00 -1.00 -1.00
A''2   1.00  1.00 -1.00 -1.00 -1.00  1.00
E''    2.00 -1.00  0.00 -2.00  1.00  0.00

     the symmetry operations in each class and the name of the first element:

     E        1
          identity                                               
     2C3      3    4
          120 deg rotation - cryst. axis [0,0,1]                 
     3C2      2    6    5
          180 deg rotation - cart. axis [0,1,0]                  
     s_h      7
          inv. 180 deg rotation - cart. axis [0,0,1]             
     2S3      9   10
          inv.  60 deg rotation - cryst. axis [0,0,1]            
     3s_v     8   11   12
          inv. 180 deg rotation - cart. axis [1,0,0]             

   Cartesian axes

     site n.     atom                  positions (alat units)
         1           B   tau(   1) = (   0.5000000   0.2886751   0.0000000  )
         2           N   tau(   2) = (  -0.5000000  -0.2886751   0.0000000  )

   Crystallographic axes

     site n.     atom                  positions (cryst. coord.)
         1           B   tau(   1) = (  0.6666667  0.3333333  0.0000000  )
         2           N   tau(   2) = ( -0.6666667 -0.3333333  0.0000000  )

     number of k points=    12
                       cart. coord. in units 2pi/alat
        k(    1) = (   0.0833333   0.1443376  -0.0714286), wk =   0.1111111
        k(    2) = (   0.0833333   0.3367877  -0.0714286), wk =   0.2222222
        k(    3) = (   0.0833333   0.5292377  -0.0714286), wk =   0.2222222
        k(    4) = (   0.0833333  -0.4330127  -0.0714286), wk =   0.2222222
        k(    5) = (   0.0833333  -0.2405626  -0.0714286), wk =   0.2222222
        k(    6) = (   0.0833333  -0.0481125  -0.0714286), wk =   0.1111111
        k(    7) = (   0.2500000   0.4330127  -0.0714286), wk =   0.1111111
        k(    8) = (   0.2500000   0.6254628  -0.0714286), wk =   0.2222222
        k(    9) = (   0.2500000  -0.3367877  -0.0714286), wk =   0.2222222
        k(   10) = (   0.2500000  -0.1443376  -0.0714286), wk =   0.1111111
        k(   11) = (   0.4166667   0.7216878  -0.0714286), wk =   0.1111111
        k(   12) = (   0.4166667  -0.2405626  -0.0714286), wk =   0.1111111

                       cryst. coord.
        k(    1) = (   0.0833333   0.0833333  -0.5000000), wk =   0.1111111
        k(    2) = (   0.0833333   0.2500000  -0.5000000), wk =   0.2222222
        k(    3) = (   0.0833333   0.4166667  -0.5000000), wk =   0.2222222
        k(    4) = (   0.0833333  -0.4166667  -0.5000000), wk =   0.2222222
        k(    5) = (   0.0833333  -0.2500000  -0.5000000), wk =   0.2222222
        k(    6) = (   0.0833333  -0.0833333  -0.5000000), wk =   0.1111111
        k(    7) = (   0.2500000   0.2500000  -0.5000000), wk =   0.1111111
        k(    8) = (   0.2500000   0.4166667  -0.5000000), wk =   0.2222222
        k(    9) = (   0.2500000  -0.4166667  -0.5000000), wk =   0.2222222
        k(   10) = (   0.2500000  -0.2500000  -0.5000000), wk =   0.1111111
        k(   11) = (   0.4166667   0.4166667  -0.5000000), wk =   0.1111111
        k(   12) = (   0.4166667  -0.4166667  -0.5000000), wk =   0.1111111

     Dense  grid:    21817 G-vectors     FFT dimensions: (  20,  20, 135)

     Largest allocated arrays     est. size (Mb)     dimensions
        Kohn-Sham Wavefunctions         0.17 Mb     (    2730,    4)
        NL pseudopotentials             0.08 Mb     (    2730,    2)
        Each V/rho on FFT grid          0.82 Mb     (   54000)
        Each G-vector array             0.17 Mb     (   21817)
        G-vector shells                 0.01 Mb     (    1080)
     Largest temporary arrays     est. size (Mb)     dimensions
        Auxiliary wavefunctions         0.67 Mb     (    2730,   16)
        Each subspace H/S matrix        0.00 Mb     (      16,   16)
        Each <psi_i|beta_j> matrix      0.00 Mb     (       2,    4)
        Arrays for rho mixing           6.59 Mb     (   54000,    8)

     Initial potential from superposition of free atoms
     Check: negative starting charge=   -0.007129

     starting charge    7.99969, renormalised to    8.00000

     negative rho (up, down):  7.129E-03 0.000E+00
     Starting wfc are    8 randomized atomic wfcs

     total cpu time spent up to now is        0.3 secs

     Self-consistent Calculation

     iteration #  1     ecut=    40.00 Ry     beta=0.70
     Davidson diagonalization with overlap
     ethr =  1.00E-02,  avg # of iterations =  2.0

     negative rho (up, down):  2.029E-03 0.000E+00

     total cpu time spent up to now is        0.8 secs

     total energy              =     -25.45974917 Ry
     Harris-Foulkes estimate   =     -25.65057652 Ry
     estimated scf accuracy    <       0.29030355 Ry

     iteration #  2     ecut=    40.00 Ry     beta=0.70
     Davidson diagonalization with overlap
     ethr =  3.63E-03,  avg # of iterations =  2.8

     negative rho (up, down):  1.037E-03 0.000E+00

     total cpu time spent up to now is        1.2 secs

     total energy              =     -25.52474723 Ry
     Harris-Foulkes estimate   =     -25.59030550 Ry
     estimated scf accuracy    <       0.12252091 Ry

     iteration #  3     ecut=    40.00 Ry     beta=0.70
     Davidson diagonalization with overlap
     ethr =  1.53E-03,  avg # of iterations =  2.2

     negative rho (up, down):  8.242E-05 0.000E+00

     total cpu time spent up to now is        1.6 secs

     total energy              =     -25.55070593 Ry
     Harris-Foulkes estimate   =     -25.55127944 Ry
     estimated scf accuracy    <       0.00163873 Ry

     iteration #  4     ecut=    40.00 Ry     beta=0.70
     Davidson diagonalization with overlap
     ethr =  2.05E-05,  avg # of iterations =  2.8

     negative rho (up, down):  5.314E-05 0.000E+00

     total cpu time spent up to now is        2.1 secs

     total energy              =     -25.55143610 Ry
     Harris-Foulkes estimate   =     -25.55158015 Ry
     estimated scf accuracy    <       0.00031456 Ry

     iteration #  5     ecut=    40.00 Ry     beta=0.70
     Davidson diagonalization with overlap
     ethr =  3.93E-06,  avg # of iterations =  1.1

     total cpu time spent up to now is        2.4 secs

     total energy              =     -25.55143876 Ry
     Harris-Foulkes estimate   =     -25.55145806 Ry
     estimated scf accuracy    <       0.00004416 Ry

     iteration #  6     ecut=    40.00 Ry     beta=0.70
     Davidson diagonalization with overlap
     ethr =  5.52E-07,  avg # of iterations =  2.6

     total cpu time spent up to now is        2.8 secs

     total energy              =     -25.55145586 Ry
     Harris-Foulkes estimate   =     -25.55146204 Ry
     estimated scf accuracy    <       0.00001457 Ry

     iteration #  7     ecut=    40.00 Ry     beta=0.70
     Davidson diagonalization with overlap
     ethr =  1.82E-07,  avg # of iterations =  1.9

     total cpu time spent up to now is        3.2 secs

     total energy              =     -25.55145690 Ry
     Harris-Foulkes estimate   =     -25.55145752 Ry
     estimated scf accuracy    <       0.00000118 Ry

     iteration #  8     ecut=    40.00 Ry     beta=0.70
     Davidson diagonalization with overlap
     ethr =  1.48E-08,  avg # of iterations =  3.1

     total cpu time spent up to now is        3.7 secs

     total energy              =     -25.55145759 Ry
     Harris-Foulkes estimate   =     -25.55145771 Ry
     estimated scf accuracy    <       0.00000029 Ry

     iteration #  9     ecut=    40.00 Ry     beta=0.70
     Davidson diagonalization with overlap
     ethr =  3.62E-09,  avg # of iterations =  1.0

     total cpu time spent up to now is        4.0 secs

     total energy              =     -25.55145759 Ry
     Harris-Foulkes estimate   =     -25.55145761 Ry
     estimated scf accuracy    <       0.00000006 Ry

     iteration # 10     ecut=    40.00 Ry     beta=0.70
     Davidson diagonalization with overlap
     ethr =  7.63E-10,  avg # of iterations =  2.7

     total cpu time spent up to now is        4.4 secs

     End of self-consistent calculation

          k = 0.0833 0.1443-0.0714 (  2712 PWs)   bands (ev):

   -21.7172  -8.9131  -6.8348  -6.1207

     occupation numbers 
     1.0000   1.0000   1.0000   1.0000

          k = 0.0833 0.3368-0.0714 (  2712 PWs)   bands (ev):

   -20.4902 -10.1544  -7.7146  -7.1818

     occupation numbers 
     1.0000   1.0000   1.0000   1.0000

          k = 0.0833 0.5292-0.0714 (  2718 PWs)   bands (ev):

   -19.0763 -12.8131  -8.5919  -4.9791

     occupation numbers 
     1.0000   1.0000   1.0000   1.0000

          k = 0.0833-0.4330-0.0714 (  2726 PWs)   bands (ev):

   -19.6903 -11.7769  -8.2888  -5.9888

     occupation numbers 
     1.0000   1.0000   1.0000   1.0000

          k = 0.0833-0.2406-0.0714 (  2718 PWs)   bands (ev):

   -21.2046  -8.3858  -8.2029  -6.9485

     occupation numbers 
     1.0000   1.0000   1.0000   1.0000

          k = 0.0833-0.0481-0.0714 (  2728 PWs)   bands (ev):

   -21.9819  -9.2740  -5.9024  -5.5921

     occupation numbers 
     1.0000   1.0000   1.0000   1.0000

          k = 0.2500 0.4330-0.0714 (  2712 PWs)   bands (ev):

   -19.1572 -11.7917  -9.9659  -5.1583

     occupation numbers 
     1.0000   1.0000   1.0000   1.0000

          k = 0.2500 0.6255-0.0714 (  2710 PWs)   bands (ev):

   -18.6567 -12.3122 -10.5693  -4.2941

     occupation numbers 
     1.0000   1.0000   1.0000   1.0000

          k = 0.2500-0.3368-0.0714 (  2716 PWs)   bands (ev):

   -19.8501 -11.0366  -8.8771  -6.2400

     occupation numbers 
     1.0000   1.0000   1.0000   1.0000

          k = 0.2500-0.1443-0.0714 (  2706 PWs)   bands (ev):

   -20.9591  -9.1939  -7.8565  -6.9939

     occupation numbers 
     1.0000   1.0000   1.0000   1.0000

          k = 0.4167 0.7217-0.0714 (  2702 PWs)   bands (ev):

   -18.8017 -12.7313  -9.5827  -4.5143

     occupation numbers 
     1.0000   1.0000   1.0000   1.0000

          k = 0.4167-0.2406-0.0714 (  2730 PWs)   bands (ev):

   -19.4066 -12.4594  -8.0924  -5.5307

     occupation numbers 
     1.0000   1.0000   1.0000   1.0000

     highest occupied level (ev):    -4.2941

!    total energy              =     -25.55145760 Ry
     Harris-Foulkes estimate   =     -25.55145760 Ry
     estimated scf accuracy    <          5.5E-09 Ry

     The total energy is the sum of the following terms:

     one-electron contribution =    -188.79927191 Ry
     hartree contribution      =      95.80813075 Ry
     xc contribution           =      -7.24192134 Ry
     ewald contribution        =      74.68160489 Ry

     convergence has been achieved in  10 iterations

     Writing output data file hBN_2D.save

     init_run     :      0.29s CPU      0.31s WALL (       1 calls)
     electrons    :      3.98s CPU      4.05s WALL (       1 calls)

     Called by init_run:
     wfcinit      :      0.24s CPU      0.24s WALL (       1 calls)
     potinit      :      0.02s CPU      0.02s WALL (       1 calls)

     Called by electrons:
     c_bands      :      3.24s CPU      3.28s WALL (      10 calls)
     sum_band     :      0.60s CPU      0.61s WALL (      10 calls)
     v_of_rho     :      0.07s CPU      0.07s WALL (      11 calls)
     v_h          :      0.03s CPU      0.03s WALL (      11 calls)
     v_xc         :      0.04s CPU      0.04s WALL (      11 calls)
     mix_rho      :      0.06s CPU      0.08s WALL (      10 calls)

     Called by c_bands:
     init_us_2    :      0.05s CPU      0.05s WALL (     252 calls)
     cegterg      :      3.21s CPU      3.25s WALL (     120 calls)

     Called by sum_band:

     Called by *egterg:
     h_psi        :      3.18s CPU      3.23s WALL (     399 calls)
     g_psi        :      0.02s CPU      0.02s WALL (     267 calls)
     cdiaghg      :      0.03s CPU      0.03s WALL (     387 calls)
     cegterg:over :      0.06s CPU      0.06s WALL (     267 calls)
     cegterg:upda :      0.06s CPU      0.06s WALL (     267 calls)
     cegterg:last :      0.02s CPU      0.02s WALL (     120 calls)

     Called by h_psi:
     h_psi:vloc   :      3.12s CPU      3.17s WALL (     399 calls)
     h_psi:vnl    :      0.05s CPU      0.05s WALL (     399 calls)
     add_vuspsi   :      0.03s CPU      0.03s WALL (     399 calls)

     General routines
     calbec       :      0.02s CPU      0.02s WALL (     399 calls)
     fft          :      0.07s CPU      0.08s WALL (      43 calls)
     fftw         :      3.35s CPU      3.40s WALL (    3400 calls)

     Parallel routines
     fft_scatter  :      0.16s CPU      0.16s WALL (    3443 calls)

     PWSCF        :     4.32s CPU         4.47s WALL


   This run was terminated on:  17:13:38  24Mar2017            

=------------------------------------------------------------------------------=
   JOB DONE.
=------------------------------------------------------------------------------=
