#                                                           
#  **    **    **     ****     ****  ******     *******     
# //**  **    ****   /**/**   **/** /*////**   **/////**    
#  //****    **//**  /**//** ** /** /*   /**  **     //**   
#   //**    **  //** /** //***  /** /******  /**      /**   
#    /**   **********/**  //*   /** /*//// **/**      /**   
#    /**  /**//////**/**   /    /** /*    /**//**     **    
#    /**  /**     /**/**        /** /*******  //*******     
#    //   //      // //         //  ///////    ///////      
#                                                           
# GPL Version 4.4.0 Revision 148. (Based on r.16920 h.961a8d
#                  MPI+SLK+OpenMP Build                     
#                http://www.yambo-code.org                  
#
#
   CRYSTAL
   PRIMVEC
    37.78325   0.00000   0.00000
     0.00000  13.22943   0.00000
     0.00000   0.00000  13.22943
   PRIMCOORD
     35    1
     -1  18.41537   6.61471   6.61471
         1   0.58209   6.61471   6.61471
         1   2.80464   6.61471   6.61471
         1   5.02718   6.61471   6.61471
         1   7.24973   6.61471   6.61471
         1   9.47227   6.61471   6.61471
         1  11.69482   6.61471   6.61471
         1  13.91736   6.61471   6.61471
         1  16.13990   6.61471   6.61471
         1  18.36245   6.61471   6.61471
         1  20.58499   6.61471   6.61471
         1  22.80754   6.61471   6.61471
         1  25.03008   6.61471   6.61471
         1  27.25262   6.61471   6.61471
         1  29.47517   6.61471   6.61471
         1  31.69771   6.61471   6.61471
         1  33.92026   6.61471   6.61471
         1  36.14280   6.61471   6.61471
         1   1.64045   6.61471   6.61471
         1   3.86299   6.61471   6.61471
         1   6.08554   6.61471   6.61471
         1   8.30808   6.61471   6.61471
         1  10.53063   6.61471   6.61471
         1  12.75317   6.61471   6.61471
         1  14.97571   6.61471   6.61471
         1  17.19826   6.61471   6.61471
         1  19.42080   6.61471   6.61471
         1  21.64335   6.61471   6.61471
         1  23.86589   6.61471   6.61471
         1  26.08844   6.61471   6.61471
         1  28.31098   6.61471   6.61471
         1  30.53352   6.61471   6.61471
         1  32.75607   6.61471   6.61471
         1  34.97861   6.61471   6.61471
         1  37.20116   6.61471   6.61471
   BEGIN_BLOCK_DATAGRID_3D
   Generated with YPP  4   4   0
   BEGIN_DATAGRID_3D
    120   45   45
    0.00      0.00      0.00    
    37.78325   0.00000   0.00000
     0.00000  13.22943   0.00000
     0.00000   0.00000  13.22943
   0.5634E-7
   0.1503E-7
   0.2826E-8
   0.1304E-7
   0.829E-09
   0.1389E-8
   0.867E-09
   0.6079E-7
   0.1336E-7
   0.3890E-8
   0.1199E-7
   0.340E-09
   0.1693E-8
   0.897E-09
   0.7224E-7
   0.1395E-7
   0.4004E-8
   0.1187E-7
   0.426E-09
   0.2110E-8
   0.1367E-8
   0.8890E-7
   0.1711E-7
   0.2808E-8
   0.1440E-7
   0.494E-09
   0.1897E-8
   0.1733E-8
   0.1016E-6
   0.1925E-7
   0.1979E-8
   0.1756E-7
   0.432E-09
   0.1449E-8
   0.1545E-8
   0.1060E-6
   0.1730E-7
   0.2046E-8
   0.1750E-7
   0.733E-09
   0.1338E-8
   0.1572E-8
   0.1097E-6
   0.1375E-7
   0.2662E-8
   0.1450E-7
   0.2234E-8
   0.1471E-8
   0.2557E-8
   0.1212E-6
   0.1231E-7
   0.2680E-8
   0.1249E-7
   0.4590E-8
   0.1643E-8
   0.4602E-8
   0.1378E-6
   0.1305E-7
   0.1753E-8
   0.1310E-7
   0.5623E-8
   0.1347E-8
   0.5952E-8
   0.1470E-6
   0.1291E-7
   0.1218E-8
   0.1400E-7
   0.5573E-8
   0.1247E-8
   0.5857E-8
   0.1433E-6
   0.9967E-8
   0.1152E-8
   0.1183E-7
   0.6719E-8
   0.1476E-8
   0.6271E-8
   0.1359E-6
   0.6571E-8
   0.1193E-8
   0.7571E-8
   0.1002E-7
   0.1307E-8
   0.8869E-8
   0.1353E-6
   0.5152E-8
   0.1176E-8
   0.4782E-8
   0.1334E-7
   0.1147E-8
   0.1277E-7
   0.1398E-6
   0.5317E-8
   0.1071E-8
   0.4202E-8
   0.1359E-7
   0.1236E-8
   0.1443E-7
   0.1378E-6
   0.5081E-8
   0.1267E-8
   0.4220E-8
   0.1194E-7
   0.1908E-8
   0.1303E-7
   0.1246E-6
   0.3360E-8
   0.1301E-8
   0.2984E-8
   0.1180E-7
   0.2652E-8
   0.1207E-7
   0.1091E-6
   0.1756E-8
   0.1132E-8
   0.1162E-8
   0.1393E-7
   0.2354E-8
   0.1387E-7
   0.5634E-7
   0.1374E-8
   0.1569E-8
   0.803E-09
   0.118E-09
   0.127E-09
   0.707E-10
   0.4018E-8
   0.2339E-8
   0.2878E-8
   0.1651E-8
   0.870E-11
   0.519E-09
   0.878E-10
   0.3658E-8
   0.2208E-8
   0.3236E-8
   0.1924E-8
   0.168E-10
   0.1012E-8
   0.226E-09
   0.2767E-8
   0.1433E-8
   0.2481E-8
   0.1210E-8
   0.528E-10
   0.737E-09
   0.126E-09
   0.3040E-8
   0.1338E-8
   0.2232E-8
   0.713E-09
   0.365E-09
   0.260E-09
   0.107E-09
   0.4790E-8
   0.2310E-8
   0.3354E-8
   0.949E-09
   0.388E-09
   0.211E-09
   0.281E-09
   0.6385E-8
   0.3543E-8
   0.5214E-8
   0.1704E-8
   0.112E-09
   0.630E-09
   0.152E-09
   0.5825E-8
   0.3328E-8
   0.5631E-8
   0.1816E-8
   0.482E-10
   0.1146E-8
   0.607E-10
   0.4396E-8
   0.2198E-8
   0.4417E-8
   0.955E-09
   0.253E-09
   0.831E-09
   0.110E-09
   0.4301E-8
   0.1869E-8
   0.3797E-8
   0.387E-09
   0.797E-09
   0.274E-09
   0.569E-09
   0.5816E-8
   0.2789E-8
   0.4894E-8
   0.423E-09
   0.826E-09
   0.165E-09
   0.1071E-8
   0.7068E-8
   0.4019E-8
   0.6751E-8
   0.829E-09
   0.338E-09
   0.454E-09
   0.789E-09
   0.6065E-8
   0.3729E-8
   0.6840E-8
   0.852E-09
   0.160E-09
   0.824E-09
   0.408E-09
   0.4214E-8
   0.2402E-8
   0.5035E-8
   0.294E-09
   0.404E-09
   0.531E-09
   0.527E-09
   0.3694E-8
   0.1850E-8
   0.3853E-8
   0.558E-10
   0.991E-09
   0.105E-09
   0.1249E-8
   0.4643E-8
   0.2492E-8
   0.4407E-8
   0.538E-10
   0.1001E-8
   0.341E-10
   0.1807E-8
   0.5385E-8
   0.3433E-8
   0.5710E-8
   0.168E-09
   0.424E-09
   0.166E-09
   0.1307E-8
   0.4284E-8
   0.1374E-8
   0.3796E-8
   0.395E-10
   0.1516E-8
   0.992E-09
   0.378E-09
   0.841E-10
   0.125E-09
   0.5799E-8
   0.264E-09
   0.868E-09
   0.1954E-8
   0.120E-09
   0.239E-10
   0.313E-09
   0.6065E-8
   0.221E-09
   0.781E-09
   0.2472E-8
   0.280E-10
   0.232E-09
   0.784E-09
   0.4997E-8
   0.181E-10
   0.1466E-8
   0.1648E-8
   0.144E-09
   0.224E-09
   0.756E-09
   0.4942E-8
   0.378E-10
   0.2271E-8
   0.828E-09
   0.598E-09
   0.374E-10
   0.257E-09
   0.6838E-8
   0.148E-10
   0.1935E-8
   0.888E-09
   0.745E-09
   0.178E-10
   0.748E-10
   0.9238E-8
   0.153E-09
   0.1067E-8
   0.1761E-8
   0.347E-09
   0.170E-09
   0.199E-09
   0.9470E-8
   0.107E-09
   0.837E-09
   0.2350E-8
   0.169E-09
   0.726E-09
   0.589E-09
   0.8019E-8
   0.297E-10
   0.1345E-8
   0.1586E-8
   0.465E-09
   0.867E-09
   0.531E-09
   0.7676E-8
   0.244E-09
   0.1840E-8
   0.690E-09
   0.1331E-8
   0.485E-09
   0.862E-10
   0.9405E-8
   0.144E-09
   0.1258E-8
   0.563E-09
   0.1663E-8
   0.388E-09
   0.176E-10
   0.1124E-7
   0.101E-10
   0.416E-09
   0.1052E-8
   0.972E-09
   0.890E-09
   0.836E-11
   0.1042E-7
   0.107E-10
   0.196E-09
   0.1399E-8
   0.511E-09
   0.1757E-8
   0.110E-09
   0.7984E-8
   0.214E-09
   0.433E-09
   0.853E-09
   0.800E-09
   0.1764E-8
   0.122E-09
   0.6961E-8
   0.581E-09
   0.775E-09
   0.280E-09
   0.1783E-8
   0.1029E-8
   0.657E-11
   0.8114E-8
   0.420E-09
   0.467E-09
   0.212E-09
   0.2252E-8
   0.746E-09
   0.141E-09
   0.9445E-8
   0.123E-09
   0.510E-10
   0.522E-09
   0.1511E-8
   0.1236E-8
   0.830E-10
   0.3796E-8
   0.4301E-8
   0.1792E-8
   0.1410E-8
   0.386E-09
   0.1194E-8
   0.616E-09
   0.393E-09
   0.3791E-8
   0.1132E-8
   0.2354E-8
   0.132E-09
   0.522E-09
   0.480E-09
   0.306E-09
   0.5067E-8
   0.1222E-8
   0.2690E-8
   0.978E-10
   0.195E-09
   0.473E-09
   0.375E-09
   0.7965E-8
   0.2050E-8
   0.1900E-8
   0.200E-09
   0.242E-09
   0.459E-09
   0.391E-09
   0.9809E-8
   0.2536E-8
   0.1307E-8
   0.573E-09
   0.499E-09
   0.692E-09
   0.303E-09
   0.8990E-8
   0.1717E-8
   0.1544E-8
   0.533E-09
   0.430E-09
   0.1005E-8
   0.344E-09
   0.7995E-8
   0.853E-09
   0.2365E-8
   0.176E-09
   0.105E-09
   0.763E-09
   0.314E-09
   0.9319E-8
   0.740E-09
   0.2517E-8
   0.107E-09
   0.119E-09
   0.535E-09
   0.632E-09
   0.1250E-7
   0.1220E-8
   0.1604E-8
   0.163E-09
   0.871E-10
   0.626E-09
   0.788E-09
   0.1408E-7
   0.1561E-8
   0.967E-09
   0.411E-09
   0.104E-09
   0.1220E-8
   0.464E-09
   0.1228E-7
   0.955E-09
   0.1051E-8
   0.348E-09
   0.104E-09
   0.1750E-8
   0.328E-09
   0.1017E-7
   0.385E-09
   0.1614E-8
   0.106E-09
   0.117E-09
   0.1373E-8
   0.526E-09
   0.1059E-7
   0.306E-09
   0.1684E-8
   0.146E-09
   0.387E-09
   0.919E-09
   0.1277E-8
   0.1285E-7
   0.471E-09
   0.951E-09
   0.103E-09
   0.280E-09
   0.1071E-8
   0.1669E-8
   0.1341E-7
   0.675E-09
   0.530E-09
   0.108E-09
   0.813E-10
   0.1891E-8
   0.1143E-8
   0.1071E-7
   0.433E-09
   0.542E-09
   0.867E-10
   0.726E-10
   0.2445E-8
   0.770E-09
   0.7859E-8
   0.265E-09
   0.842E-09
   0.255E-09
   0.165E-09
   0.1832E-8
   0.1065E-8
   0.4301E-8
   0.106E-09
   0.2112E-8
   0.2750E-8
   0.313E-10
   0.344E-10
   0.667E-09
   0.4498E-8
   0.428E-09
   0.3601E-8
   0.4512E-8
   0.321E-10
   0.321E-09
   0.374E-09
   0.4120E-8
   0.309E-09
   0.3970E-8
   0.5160E-8
   0.124E-09
   0.749E-09
   0.152E-09
   0.3084E-8
   0.490E-10
   0.3095E-8
   0.3993E-8
   0.110E-10
   0.478E-09
   0.353E-09
   0.3350E-8
   0.353E-10
   0.2815E-8
   0.3108E-8
   0.524E-10
   0.741E-10
   0.1233E-8
   0.5345E-8
   0.359E-09
   0.4076E-8
   0.3837E-8
   0.428E-10
   0.225E-10
   0.1979E-8
   0.7318E-8
   0.973E-09
   0.6071E-8
   0.5610E-8
   0.106E-10
   0.205E-09
   0.1574E-8
   0.6873E-8
   0.784E-09
   0.6444E-8
   0.5973E-8
   0.445E-10
   0.537E-09
   0.1095E-8
   0.5254E-8
   0.219E-09
   0.5141E-8
   0.4184E-8
   0.124E-10
   0.333E-09
   0.1592E-8
   0.5011E-8
   0.102E-09
   0.4600E-8
   0.2668E-8
   0.251E-09
   0.263E-10
   0.3280E-8
   0.6555E-8
   0.436E-09
   0.6005E-8
   0.2726E-8
   0.240E-09
   0.292E-12
   0.4600E-8
   0.7903E-8
   0.1116E-8
   0.8123E-8
   0.3743E-8
   0.212E-10
   0.537E-10
   0.3947E-8
   0.6878E-8
   0.993E-09
   0.8046E-8
   0.3790E-8
   0.130E-11
   0.206E-09
   0.2873E-8
   0.4886E-8
   0.326E-09
   0.5850E-8
   0.2285E-8
   0.889E-10
   0.804E-10
   0.3125E-8
   0.4304E-8
   0.111E-09
   0.4488E-8
   0.1106E-8
   0.515E-09
   0.122E-10
   0.4710E-8
   0.5337E-8
   0.299E-09
   0.5165E-8
   0.1021E-8
   0.548E-09
   0.510E-10
   0.5727E-8
   0.6158E-8
   0.723E-09
   0.6683E-8
   0.1580E-8
   0.145E-09
   0.434E-11
   0.4634E-8
   0.4966E-8
   0.106E-09
   0.3145E-8
   0.2751E-8
   0.2533E-8
   0.579E-09
   0.296E-09
   0.1736E-8
   0.629E-09
   0.5041E-8
   0.4031E-8
   0.1720E-8
   0.1272E-8
   0.573E-09
   0.1231E-8
   0.634E-09
   0.5232E-8
   0.4022E-8
   0.1582E-8
   0.1775E-8
   0.860E-09
   0.947E-09
   0.865E-09
   0.4347E-8
   0.2809E-8
   0.2194E-8
   0.1270E-8
   0.469E-09
   0.952E-09
   0.863E-09
   0.4774E-8
   0.2170E-8
   0.2805E-8
   0.734E-09
   0.198E-09
   0.1174E-8
   0.635E-09
   0.7484E-8
   0.2623E-8
   0.2212E-8
   0.837E-09
   0.261E-09
   0.1251E-8
   0.772E-09
   0.1059E-7
   0.3407E-8
   0.1329E-8
   0.1522E-8
   0.183E-09
   0.938E-09
   0.734E-09
   0.1063E-7
   0.2965E-8
   0.1113E-8
   0.1819E-8
   0.185E-09
   0.996E-09
   0.618E-09
   0.8524E-8
   0.1683E-8
   0.1392E-8
   0.1063E-8
   0.172E-09
   0.1012E-8
   0.609E-09
   0.7998E-8
   0.1072E-8
   0.1772E-8
   0.448E-09
   0.557E-09
   0.878E-09
   0.943E-09
   0.1030E-7
   0.1212E-8
   0.1381E-8
   0.407E-09
   0.911E-09
   0.865E-09
   0.1633E-8
   0.1308E-7
   0.1608E-8
   0.907E-09
   0.752E-09
   0.600E-09
   0.958E-09
   0.1611E-8
   0.1245E-7
   0.1283E-8
   0.877E-09
   0.880E-09
   0.359E-09
   0.1522E-8
   0.1185E-8
   0.9269E-8
   0.630E-09
   0.879E-09
   0.359E-09
   0.564E-09
   0.1668E-8
   0.1280E-8
   0.7478E-8
   0.525E-09
   0.981E-09
   0.181E-09
   0.1259E-8
   0.1222E-8
   0.2226E-8
   0.8229E-8
   0.521E-09
   0.875E-09
   0.225E-09
   0.1528E-8
   0.1062E-8
   0.3284E-8
   0.9444E-8
   0.651E-09
   0.951E-09
   0.161E-09
   0.898E-09
   0.1439E-8
   0.2956E-8
   0.3145E-8
   0.1360E-8
   0.1341E-8
   0.7908E-8
   0.242E-09
   0.202E-09
   0.1330E-8
   0.3799E-8
   0.819E-09
   0.970E-09
   0.6376E-8
   0.172E-09
   0.166E-09
   0.978E-09
   0.5132E-8
   0.1162E-8
   0.1261E-8
   0.6342E-8
   0.256E-09
   0.250E-09
   0.938E-09
   0.7389E-8
   0.2398E-8
   0.2667E-8
   0.8484E-8
   0.154E-09
   0.151E-09
   0.965E-09
   0.7962E-8
   0.3193E-8
   0.4225E-8
   0.1059E-7
   0.334E-09
   0.282E-09
   0.903E-09
   0.6603E-8
   0.2521E-8
   0.4026E-8
   0.9618E-8
   0.281E-09
   0.294E-09
   0.895E-09
   0.5985E-8
   0.1793E-8
   0.3161E-8
   0.6936E-8
   0.169E-09
   0.141E-09
   0.1312E-8
   0.7535E-8
   0.2176E-8
   0.3595E-8
   0.5738E-8
   0.340E-09
   0.244E-09
   0.2492E-8
   0.9938E-8
   0.3529E-8
   0.5835E-8
   0.6501E-8
   0.190E-09
   0.153E-09
   0.2933E-8
   0.9899E-8
   0.4178E-8
   0.8041E-8
   0.7225E-8
   0.221E-09
   0.290E-09
   0.2457E-8
   0.7374E-8
   0.3182E-8
   0.7646E-8
   0.5651E-8
   0.235E-09
   0.347E-09
   0.2622E-8
   0.5702E-8
   0.2211E-8
   0.6036E-8
   0.3180E-8
   0.194E-09
   0.155E-09
   0.4386E-8
   0.6306E-8
   0.2498E-8
   0.5920E-8
   0.2044E-8
   0.386E-09
   0.309E-09
   0.6949E-8
   0.7844E-8
   0.3726E-8
   0.7675E-8
   0.2107E-8
   0.243E-09
   0.221E-09
   0.7459E-8
   0.7328E-8
   0.4079E-8
   0.9069E-8
   0.2287E-8
   0.182E-09
   0.190E-09
   0.5966E-8
   0.4696E-8
   0.2757E-8
   0.7853E-8
   0.1566E-8
   0.197E-09
   0.262E-09
   0.5308E-8
   0.2882E-8
   0.1592E-8
   0.5720E-8
   0.814E-09
   0.186E-09
   0.158E-09
   0.6664E-8
   0.2809E-8
   0.1360E-8
   0.946E-09
   0.301E-09
   0.499E-09
   0.859E-09
   0.1549E-8
   0.3061E-8
   0.1427E-8
   0.429E-09
   0.235E-09
   0.363E-09
   0.2075E-8
   0.939E-09
   0.2127E-8
   0.2278E-8
   0.608E-09
   0.241E-09
   0.384E-09
   0.3040E-8
   0.649E-09
   0.1238E-8
   0.3767E-8
   0.1413E-8
   0.651E-09
   0.394E-09
   0.2337E-8
   0.1193E-8
   0.1310E-8
   0.3792E-8
   0.1770E-8
   0.1235E-8
   0.532E-09
   0.1410E-8
   0.2434E-8
   0.2186E-8
   0.2402E-8
   0.1023E-8
   0.871E-09
   0.399E-09
   0.1615E-8
   0.2782E-8
   0.2610E-8
   0.1740E-8
   0.438E-09
   0.415E-09
   0.454E-09
   0.3082E-8
   0.1862E-8
   0.1660E-8
   0.2513E-8
   0.559E-09
   0.520E-09
   0.583E-09
   0.4286E-8
   0.1370E-8
   0.790E-09
   0.4028E-8
   0.1287E-8
   0.1529E-8
   0.401E-09
   0.3444E-8
   0.2130E-8
   0.684E-09
   0.3907E-8
   0.1633E-8
   0.2775E-8
   0.342E-09
   0.2100E-8
   0.3768E-8
   0.1076E-8
   0.2137E-8
   0.950E-09
   0.2391E-8
   0.436E-09
   0.1978E-8
   0.4113E-8
   0.1246E-8
   0.1132E-8
   0.414E-09
   0.1394E-8
   0.1074E-8
   0.3081E-8
   0.2674E-8
   0.670E-09
   0.1381E-8
   0.565E-09
   0.1350E-8
   0.1495E-8
   0.3904E-8
   0.1699E-8
   0.328E-09
   0.2342E-8
   0.1366E-8
   0.2512E-8
   0.995E-09
   0.2945E-8
   0.2161E-8
   0.311E-09
   0.2341E-8
   0.1807E-8
   0.3765E-8
   0.631E-09
   0.1635E-8
   0.3570E-8
   0.423E-09
   0.1130E-8
   0.1113E-8
   0.3227E-8
   0.916E-09
   0.1416E-8
   0.3856E-8
   0.530E-09
   0.461E-09
   0.507E-09
   0.1967E-8
   0.1943E-8
   0.2190E-8
   0.2402E-8
   0.331E-09
   0.510E-09
   0.946E-09
   0.5947E-8
   0.627E-09
   0.2172E-8
   0.1254E-8
   0.3116E-8
   0.1071E-8
   0.1412E-8
   0.8283E-8
   0.1034E-8
   0.3537E-8
   0.2633E-8
   0.2157E-8
   0.1292E-8
   0.985E-09
   0.7950E-8
   0.1079E-8
   0.4105E-8
   0.3712E-8
   0.1579E-8
   0.1696E-8
   0.605E-09
   0.6119E-8
   0.713E-09
   0.3197E-8
   0.3057E-8
   0.2321E-8
   0.1351E-8
   0.614E-09
   0.6048E-8
   0.630E-09
   0.2554E-8
   0.2175E-8
   0.4124E-8
   0.967E-09
   0.1132E-8
   0.8736E-8
   0.100E-08
   0.3132E-8
   0.2602E-8
   0.4854E-8
   0.1169E-8
   0.1881E-8
   0.1183E-7
   0.1872E-8
   0.4473E-8
   0.4412E-8
   0.3677E-8
   0.1054E-8
   0.1518E-8
   0.1142E-7
   0.1835E-8
   0.4531E-8
   0.5641E-8
   0.2797E-8
   0.898E-09
   0.882E-09
   0.8728E-8
   0.997E-09
   0.2961E-8
   0.4579E-8
   0.3571E-8
   0.971E-09
   0.850E-09
   0.7927E-8
   0.702E-09
   0.1906E-8
   0.3164E-8
   0.5506E-8
   0.1755E-8
   0.1505E-8
   0.1029E-7
   0.1051E-8
   0.1973E-8
   0.3319E-8
   0.6093E-8
   0.2726E-8
   0.2402E-8
   0.1324E-7
   0.1928E-8
   0.2628E-8
   0.4949E-8
   0.4474E-8
   0.2437E-8
   0.2028E-8
   0.1258E-7
   0.1916E-8
   0.2418E-8
   0.5890E-8
   0.3146E-8
   0.1809E-8
   0.1149E-8
   0.9278E-8
   0.1015E-8
   0.1283E-8
   0.4476E-8
   0.3532E-8
   0.2015E-8
   0.937E-09
   0.7677E-8
   0.661E-09
   0.867E-09
   0.2764E-8
   0.4992E-8
   0.3178E-8
   0.1355E-8
   0.9070E-8
   0.794E-09
   0.850E-09
   0.2596E-8
   0.5163E-8
   0.3958E-8
   0.1868E-8
   0.1117E-7
   0.1345E-8
   0.903E-09
   0.3804E-8
   0.3382E-8
   0.3073E-8
   0.1410E-8
   0.5947E-8
   0.805E-09
   0.9021E-8
   0.5814E-8
   0.3208E-8
   0.2895E-8
   0.8518E-8
   0.5163E-8
   0.478E-09
   0.7191E-8
   0.7006E-8
   0.2339E-8
   0.1735E-8
   0.9954E-8
   0.4577E-8
   0.1102E-8
   0.7120E-8
   0.7087E-8
   0.2265E-8
   0.1148E-8
   0.1132E-7
   0.3675E-8
   0.3073E-8
   0.8665E-8
   0.5590E-8
   0.3600E-8
   0.1203E-8
   0.9993E-8
   0.3493E-8
   0.4565E-8
   0.9435E-8
   0.4725E-8
   0.5423E-8
   0.1533E-8
   0.7578E-8
   0.3864E-8
   0.3906E-8
   0.7634E-8
   0.4662E-8
   0.5078E-8
   0.1281E-8
   0.6709E-8
   0.4016E-8
   0.3160E-8
   0.5433E-8
   0.4976E-8
   0.3223E-8
   0.898E-09
   0.7484E-8
   0.3319E-8
   0.4301E-8
   0.4725E-8
   0.4900E-8
   0.2408E-8
   0.1387E-8
   0.8235E-8
   0.2925E-8
   0.7222E-8
   0.5092E-8
   0.4347E-8
   0.3014E-8
   0.1405E-8
   0.6884E-8
   0.2960E-8
   0.8773E-8
   0.5039E-8
   0.4666E-8
   0.4027E-8
   0.992E-09
   0.5041E-8
   0.2822E-8
   0.7017E-8
   0.3758E-8
   0.4864E-8
   0.3308E-8
   0.1025E-8
   0.4473E-8
   0.2755E-8
   0.5025E-8
   0.2804E-8
   0.4494E-8
   0.1611E-8
   0.2035E-8
   0.4552E-8
   0.3136E-8
   0.5285E-8
   0.2632E-8
   0.4443E-8
   0.968E-09
   0.3695E-8
   0.4781E-8
   0.4486E-8
   0.7208E-8
   0.2615E-8
   0.5249E-8
   0.954E-09
   0.3683E-8
   0.4340E-8
   0.5330E-8
   0.7596E-8
   0.2594E-8
   0.6913E-8
   0.1109E-8
   0.2438E-8
   0.4207E-8
   0.4737E-8
   0.5030E-8
   0.2601E-8
   0.7358E-8
   0.907E-09
   0.2019E-8
   0.4707E-8
   0.4334E-8
   0.2641E-8
   0.3166E-8
   0.6426E-8
   0.892E-09
   0.2808E-8
   0.4483E-8
   0.5264E-8
   0.805E-09
   0.256E-11
   0.765E-09
   0.4115E-8
   0.2200E-8
   0.1990E-8
   0.637E-09
   0.1326E-8
   0.136E-09
   0.1433E-8
   0.2690E-8
   0.1271E-8
   0.3638E-8
   0.1089E-8
   0.942E-09
   0.517E-10
   0.1351E-8
   0.2604E-8
   0.1069E-8
   0.5387E-8
   0.2081E-8
   0.477E-09
   0.498E-10
   0.669E-09
   0.4296E-8
   0.2082E-8
   0.4703E-8
   0.2010E-8
   0.471E-09
   0.874E-10
   0.461E-09
   0.6203E-8
   0.3680E-8
   0.2994E-8
   0.1234E-8
   0.973E-09
   0.409E-10
   0.747E-09
   0.5493E-8
   0.3627E-8
   0.2754E-8
   0.1145E-8
   0.1581E-8
   0.475E-09
   0.1513E-8
   0.3522E-8
   0.2287E-8
   0.4402E-8
   0.2237E-8
   0.1120E-8
   0.341E-09
   0.1500E-8
   0.3035E-8
   0.1891E-8
   0.6183E-8
   0.4066E-8
   0.525E-09
   0.762E-11
   0.742E-09
   0.4476E-8
   0.3182E-8
   0.5343E-8
   0.4093E-8
   0.481E-09
   0.953E-11
   0.478E-09
   0.6201E-8
   0.5236E-8
   0.3270E-8
   0.2658E-8
   0.968E-09
   0.105E-09
   0.739E-09
   0.5326E-8
   0.5222E-8
   0.2659E-8
   0.2206E-8
   0.1622E-8
   0.630E-09
   0.1518E-8
   0.3095E-8
   0.3403E-8
   0.3860E-8
   0.3494E-8
   0.1210E-8
   0.480E-09
   0.1582E-8
   0.2241E-8
   0.2607E-8
   0.5282E-8
   0.5578E-8
   0.571E-09
   0.224E-10
   0.812E-09
   0.2992E-8
   0.3758E-8
   0.4474E-8
   0.5499E-8
   0.488E-09
   0.205E-10
   0.500E-09
   0.4112E-8
   0.5746E-8
   0.2569E-8
   0.3551E-8
   0.897E-09
   0.229E-10
   0.725E-09
   0.3410E-8
   0.5609E-8
   0.1897E-8
   0.2641E-8
   0.1485E-8
   0.315E-09
   0.1432E-8
   0.1754E-8
   0.3524E-8
   0.2684E-8
   0.3574E-8
   0.1148E-8
   0.256E-11
   0.359E-09
   0.8506E-8
   0.4659E-7
   0.3973E-8
   0.2420E-8
   0.1723E-7
   0.2311E-7
   0.1285E-8
   0.8956E-8
   0.4229E-7
   0.6259E-8
   0.2621E-8
   0.1490E-7
   0.2754E-7
   0.1326E-8
   0.8212E-8
   0.4206E-7
   0.8216E-8
   0.2660E-8
   0.1300E-7
   0.3403E-7
   0.774E-09
   0.7463E-8
   0.4704E-7
   0.7546E-8
   0.2248E-8
   0.1255E-7
   0.3548E-7
   0.956E-09
   0.7990E-8
   0.5036E-7
   0.6376E-8
   0.2847E-8
   0.1262E-7
   0.3119E-7
   0.2641E-8
   0.8140E-8
   0.4543E-7
   0.7250E-8
   0.3588E-8
   0.1202E-7
   0.2809E-7
   0.5052E-8
   0.7964E-8
   0.3658E-7
   0.1027E-7
   0.3175E-8
   0.1152E-7
   0.2991E-7
   0.5146E-8
   0.8962E-8
   0.3163E-7
   0.1210E-7
   0.2953E-8
   0.1295E-7
   0.3322E-7
   0.3526E-8
   0.1267E-7
   0.3138E-7
   0.1002E-7
   0.4161E-8
   0.1424E-7
   0.3115E-7
   0.3149E-8
   0.1717E-7
   0.3053E-7
   0.7192E-8
   0.7021E-8
   0.1422E-7
   0.2389E-7
   0.4928E-8
   0.1813E-7
   0.2474E-7
   0.6620E-8
   0.8531E-8
   0.1534E-7
   0.1831E-7
   0.7205E-8
   0.1722E-7
   0.1766E-7
   0.7918E-8
   0.7089E-8
   0.2009E-7
   0.1697E-7
   0.6537E-8
   0.1910E-7
   0.1399E-7
   0.8225E-8
   0.5776E-8
   0.2734E-7
   0.1713E-7
   0.3849E-8
   0.2494E-7
   0.1308E-7
   0.5729E-8
   0.6655E-8
   0.3104E-7
   0.1463E-7
   0.2508E-8
   0.2996E-7
   0.1250E-7
   0.3325E-8
   0.8951E-8
   0.2998E-7
   0.1018E-7
   0.3052E-8
   0.2875E-7
   0.1099E-7
   0.2651E-8
   0.9297E-8
   0.2999E-7
   0.7718E-8
   0.4018E-8
   0.2459E-7
   0.1023E-7
   0.2843E-8
   0.6795E-8
   0.3475E-7
   0.7245E-8
   0.359E-09
   0.1772E-7
   0.1017E-7
   0.1709E-8
   0.1738E-7
   0.4008E-8
   0.1012E-7
   0.676E-09
   0.2416E-7
   0.1412E-7
   0.3209E-8
   0.2442E-7
   0.3213E-8
   0.8782E-8
   0.746E-09
   0.2571E-7
   0.1414E-7
   0.3988E-8
   0.2987E-7
   0.3089E-8
   0.7195E-8
   0.1150E-8
   0.2429E-7
   0.1062E-7
   0.3175E-8
   0.2890E-7
   0.5524E-8
   0.8427E-8
   0.956E-09
   0.2690E-7
   0.8761E-8
   0.2776E-8
   0.2607E-7
   0.1050E-7
   0.1230E-7
   0.749E-09
   0.3617E-7
   0.1047E-7
   0.4225E-8
   0.2784E-7
   0.1383E-7
   0.1458E-7
   0.1424E-8
   0.4598E-7
   0.1310E-7
   0.7423E-8
   0.3397E-7
   0.1339E-7
   0.1230E-7
   0.1331E-8
   0.4716E-7
   0.1161E-7
   0.9045E-8
   0.3713E-7
   0.1343E-7
   0.9308E-8
   0.898E-09
   0.4214E-7
   0.6940E-8
   0.7526E-8
   0.3253E-7
   0.1787E-7
   0.9417E-8
   0.1157E-8
   0.4123E-7
   0.4188E-8
   0.6324E-8
   0.2601E-7
   0.2548E-7
   0.1224E-7
   0.3122E-8
   0.4820E-7
   0.4333E-8
   0.8019E-8
   0.2433E-7
   0.2945E-7
   0.1358E-7
   0.6033E-8
   0.5595E-7
   0.5462E-8
   0.1192E-7
   0.2682E-7
   0.2720E-7
   0.1063E-7
   0.6329E-8
   0.5417E-7
   0.4397E-8
   0.1355E-7
   0.2679E-7
   0.2501E-7
   0.7044E-8
   0.4986E-8
   0.4490E-7
   0.1786E-8
   0.1095E-7
   0.2050E-7
   0.2798E-7
   0.6167E-8
   0.5413E-8
   0.3887E-7
   0.680E-09
   0.8420E-8
   0.1344E-7
   0.3372E-7
   0.7482E-8
   0.8724E-8
   0.4001E-7
   0.664E-09
   0.9046E-8
   0.1072E-7
   0.3448E-7
   0.7963E-8
   0.1223E-7
   0.4245E-7
   0.1057E-8
   0.1183E-7
   0.1155E-7
   0.2847E-7
   0.5695E-8
   0.1155E-7
   0.1772E-7
   0.1454E-8
   0.1107E-8
   0.4174E-8
   0.406E-09
   0.490E-09
   0.1677E-8
   0.8576E-8
   0.2699E-8
   0.2049E-8
   0.6358E-8
   0.263E-09
   0.259E-09
   0.2154E-8
   0.7389E-8
   0.2176E-8
   0.2269E-8
   0.6912E-8
   0.340E-09
   0.496E-09
   0.2912E-8
   0.5412E-8
   0.907E-09
   0.1571E-8
   0.5056E-8
   0.278E-09
   0.326E-09
   0.2307E-8
   0.5858E-8
   0.654E-09
   0.1459E-8
   0.3782E-8
   0.749E-09
   0.279E-09
   0.1429E-8
   0.9123E-8
   0.1609E-8
   0.2738E-8
   0.4447E-8
   0.712E-09
   0.277E-09
   0.1465E-8
   0.1181E-7
   0.2998E-8
   0.5354E-8
   0.6223E-8
   0.294E-09
   0.365E-09
   0.1355E-8
   0.1001E-7
   0.2504E-8
   0.6069E-8
   0.6116E-8
   0.291E-09
   0.894E-09
   0.1307E-8
   0.6766E-8
   0.1054E-8
   0.4405E-8
   0.3747E-8
   0.360E-09
   0.588E-09
   0.1254E-8
   0.6158E-8
   0.673E-09
   0.3709E-8
   0.2255E-8
   0.982E-09
   0.224E-09
   0.2000E-8
   0.8424E-8
   0.1555E-8
   0.5617E-8
   0.2254E-8
   0.971E-09
   0.228E-09
   0.3207E-8
   0.1034E-7
   0.3022E-8
   0.9215E-8
   0.3018E-8
   0.361E-09
   0.390E-09
   0.2870E-8
   0.8246E-8
   0.2697E-8
   0.1006E-7
   0.2801E-8
   0.285E-09
   0.934E-09
   0.2128E-8
   0.4804E-8
   0.1214E-8
   0.7355E-8
   0.1512E-8
   0.315E-09
   0.638E-09
   0.2456E-8
   0.3580E-8
   0.729E-09
   0.5529E-8
   0.1239E-8
   0.738E-09
   0.241E-09
   0.4206E-8
   0.4450E-8
   0.1509E-8
   0.6653E-8
   0.1259E-8
   0.708E-09
   0.268E-09
   0.5662E-8
   0.5285E-8
   0.2929E-8
   0.9405E-8
   0.1182E-8
   0.277E-09
   0.292E-09
   0.4667E-8
   0.3808E-8
   0.1454E-8
   0.5976E-8
   0.408E-09
   0.574E-10
   0.4643E-8
   0.714E-10
   0.777E-10
   0.1731E-8
   0.4747E-8
   0.525E-10
   0.460E-09
   0.2808E-8
   0.674E-09
   0.448E-09
   0.949E-09
   0.6425E-8
   0.807E-10
   0.579E-09
   0.2361E-8
   0.1510E-8
   0.1297E-8
   0.209E-09
   0.1077E-7
   0.644E-09
   0.943E-10
   0.4320E-8
   0.1025E-8
   0.988E-09
   0.194E-09
   0.1344E-7
   0.1170E-8
   0.105E-09
   0.7311E-8
   0.352E-09
   0.181E-09
   0.831E-09
   0.1175E-7
   0.438E-09
   0.510E-10
   0.7018E-8
   0.518E-09
   0.562E-10
   0.1369E-8
   0.9858E-8
   0.406E-10
   0.238E-09
   0.4026E-8
   0.2083E-8
   0.252E-09
   0.536E-09
   0.1167E-7
   0.489E-10
   0.304E-09
   0.2599E-8
   0.4019E-8
   0.882E-09
   0.310E-10
   0.1651E-7
   0.183E-09
   0.441E-10
   0.3752E-8
   0.3364E-8
   0.635E-09
   0.519E-10
   0.1888E-7
   0.488E-09
   0.387E-09
   0.6114E-8
   0.1765E-8
   0.584E-10
   0.108E-09
   0.1584E-7
   0.911E-10
   0.267E-09
   0.5834E-8
   0.1772E-8
   0.964E-10
   0.386E-09
   0.1247E-7
   0.239E-09
   0.344E-10
   0.3016E-8
   0.4018E-8
   0.408E-10
   0.661E-10
   0.1317E-7
   0.479E-09
   0.537E-10
   0.1443E-8
   0.6797E-8
   0.284E-09
   0.259E-09
   0.1686E-7
   0.101E-09
   0.172E-09
   0.1775E-8
   0.6118E-8
   0.183E-09
   0.539E-09
   0.1789E-7
   0.194E-10
   0.890E-09
   0.3014E-8
   0.3551E-8
   0.819E-10
   0.111E-09
   0.1368E-7
   0.113E-09
   0.750E-09
   0.2799E-8
   0.2779E-8
   0.375E-09
   0.214E-10
   0.9402E-8
   0.867E-09
   0.135E-09
   0.1158E-8
   0.4353E-8
   0.122E-09
   0.392E-10
   0.5976E-8
   0.839E-09
   0.3499E-8
   0.2124E-8
   0.9757E-8
   0.468E-09
   0.6484E-8
   0.3247E-8
   0.339E-09
   0.2089E-8
   0.1346E-8
   0.7109E-8
   0.1557E-8
   0.9510E-8
   0.2098E-8
   0.788E-09
   0.2298E-8
   0.1372E-8
   0.6459E-8
   0.2969E-8
   0.1334E-7
   0.995E-09
   0.2503E-8
   0.4049E-8
   0.2596E-8
   0.9571E-8
   0.2486E-8
   0.1277E-7
   0.918E-09
   0.3541E-8
   0.4987E-8
   0.4355E-8
   0.1392E-7
   0.1469E-8
   0.9110E-8
   0.1629E-8
   0.2347E-8
   0.3111E-8
   0.4037E-8
   0.1362E-7
   0.1871E-8
   0.7631E-8
   0.2130E-8
   0.1330E-8
   0.1351E-8
   0.2740E-8
   0.9394E-8
   0.4553E-8
   0.9809E-8
   0.1117E-8
   0.1945E-8
   0.1108E-8
   0.2883E-8
   0.7223E-8
   0.7676E-8
   0.1286E-7
   0.636E-09
   0.4181E-8
   0.1855E-8
   0.5374E-8
   0.9057E-8
   0.7169E-8
   0.1168E-7
   0.751E-09
   0.5349E-8
   0.2336E-8
   0.8613E-8
   0.1233E-7
   0.4970E-8
   0.7468E-8
   0.573E-09
   0.3612E-8
   0.1179E-8
   0.8424E-8
   0.1153E-7
   0.5129E-8
   0.5294E-8
   0.596E-09
   0.1975E-8
   0.561E-09
   0.6107E-8
   0.7085E-8
   0.8751E-8
   0.6197E-8
   0.585E-09
   0.2268E-8
   0.667E-09
   0.5830E-8
   0.4380E-8
   0.1281E-7
   0.8032E-8
   0.1677E-8
   0.4166E-8
   0.533E-09
   0.8862E-8
   0.4821E-8
   0.1197E-7
   0.7022E-8
   0.2520E-8
   0.4989E-8
   0.584E-09
   0.1262E-7
   0.6524E-8
   0.8316E-8
   0.3994E-8
   0.1660E-8
   0.3065E-8
   0.542E-09
   0.1203E-7
   0.5851E-8
   0.7201E-8
   0.2524E-8
   0.1043E-8
   0.1333E-8
   0.1264E-8
   0.8541E-8
   0.3021E-8
   0.9751E-8
   0.3025E-8
   0.1558E-8
   0.839E-09
   0.2912E-8
   0.1576E-7
   0.6501E-8
   0.1821E-7
   0.1433E-8
   0.2024E-7
   0.1333E-7
   0.2133E-8
   0.1241E-7
   0.6854E-8
   0.1569E-7
   0.2598E-8
   0.2493E-7
   0.1155E-7
   0.3708E-8
   0.1235E-7
   0.6721E-8
   0.1608E-7
   0.4707E-8
   0.2979E-7
   0.8808E-8
   0.7875E-8
   0.1510E-7
   0.6490E-8
   0.2229E-7
   0.4869E-8
   0.2802E-7
   0.8418E-8
   0.1063E-7
   0.1589E-7
   0.7518E-8
   0.3001E-7
   0.4127E-8
   0.2235E-7
   0.1010E-7
   0.9109E-8
   0.1181E-7
   0.7637E-8
   0.3040E-7
   0.5496E-8
   0.2011E-7
   0.1063E-7
   0.7505E-8
   0.7517E-8
   0.6913E-8
   0.2448E-7
   0.1079E-7
   0.2295E-7
   0.7757E-8
   0.9641E-8
   0.6131E-8
   0.7102E-8
   0.2145E-7
   0.1697E-7
   0.2600E-7
   0.5065E-8
   0.1506E-7
   0.6448E-8
   0.9589E-8
   0.2495E-7
   0.1755E-7
   0.2271E-7
   0.4350E-8
   0.1785E-7
   0.6140E-8
   0.1381E-7
   0.3010E-7
   0.1479E-7
   0.1595E-7
   0.4332E-8
   0.1458E-7
   0.4303E-8
   0.1485E-7
   0.2800E-7
   0.1560E-7
   0.1246E-7
   0.4150E-8
   0.1083E-7
   0.3811E-8
   0.1293E-7
   0.1963E-7
   0.2217E-7
   0.1299E-7
   0.3801E-8
   0.1133E-7
   0.4351E-8
   0.1294E-7
   0.1389E-7
   0.2906E-7
   0.1426E-7
   0.5347E-8
   0.1506E-7
   0.4089E-8
   0.1714E-7
   0.1359E-7
   0.2803E-7
   0.1200E-7
   0.7016E-8
   0.1610E-7
   0.3979E-8
   0.2280E-7
   0.1502E-7
   0.2188E-7
   0.8107E-8
   0.6483E-8
   0.1154E-7
   0.5063E-8
   0.2344E-7
   0.1255E-7
   0.1919E-7
   0.6493E-8
   0.6033E-8
   0.6925E-8
   0.7673E-8
   0.1972E-7
   0.7143E-8
   0.2206E-7
   0.6558E-8
   0.7763E-8
   0.2912E-8
   0.251E-09
   0.2151E-8
   0.6941E-8
   0.2587E-8
   0.509E-09
   0.1256E-8
   0.1596E-7
   0.856E-09
   0.4339E-8
   0.1100E-7
   0.1407E-8
   0.1731E-8
   0.1595E-8
   0.1500E-7
   0.364E-09
   0.4904E-8
   0.1215E-7
   0.1253E-8
   0.3454E-8
   0.2141E-8
   0.1239E-7
   0.146E-10
   0.3612E-8
   0.8788E-8
   0.2895E-8
   0.2954E-8
   0.1519E-8
   0.1357E-7
   0.122E-09
   0.3482E-8
   0.6178E-8
   0.5606E-8
   0.1607E-8
   0.1275E-8
   0.1920E-7
   0.268E-10
   0.6285E-8
   0.7048E-8
   0.5636E-8
   0.1695E-8
   0.1758E-8
   0.2347E-7
   0.442E-09
   0.1124E-7
   0.1015E-7
   0.3446E-8
   0.3881E-8
   0.1391E-8
   0.2062E-7
   0.168E-09
   0.1294E-7
   0.1049E-7
   0.2690E-8
   0.6504E-8
   0.1135E-8
   0.1532E-7
   0.112E-09
   0.1049E-7
   0.6570E-8
   0.4465E-8
   0.5705E-8
   0.1440E-8
   0.1434E-7
   0.394E-09
   0.9435E-8
   0.3543E-8
   0.7423E-8