#                                                           
#  ____  ____     _       ____    ____  ______      ___     
# |_  _||_  _|   / \     |_   \  /   _||_   _ \   ."   `.   
#   \ \  / /    / _ \      |   \/   |    | |_) | /  .-.  \  
#    \ \/ /    / ___ \     | |\  /| |    |  __". | |   | |  
#    _|  |_  _/ /   \ \_  _| |_\/_| |_  _| |__) |\  `-"  /  
#   |______||____| |____||_____||_____||_______/  `.___."   
#                                                           
#                                                           
#                                                           
# GPL Version 4.4.0 Revision 148. (Based on r.16920 h.961a8d
#                   MPI+SLK+OpenMP Build                    
#                http://www.yambo-code.org                  
#
#
   CRYSTAL
   PRIMVEC
    36.43385   0.00000   0.00000
     0.00000  13.22943   0.00000
     0.00000   0.00000  13.22943
   PRIMCOORD
     35    1
     -1  17.75768   6.61471   6.61471
         1   0.54241   6.61471   6.61471
         1   2.68557   6.61471   6.61471
         1   4.82874   6.61471   6.61471
         1   6.97191   6.61471   6.61471
         1   9.11508   6.61471   6.61471
         1  11.25825   6.61471   6.61471
         1  13.40141   6.61471   6.61471
         1  15.54458   6.61471   6.61471
         1  17.68775   6.61471   6.61471
         1  19.83092   6.61471   6.61471
         1  21.97408   6.61471   6.61471
         1  24.11725   6.61471   6.61471
         1  26.26042   6.61471   6.61471
         1  28.40359   6.61471   6.61471
         1  30.54675   6.61471   6.61471
         1  32.68992   6.61471   6.61471
         1  34.83309   6.61471   6.61471
         1   1.60076   6.61471   6.61471
         1   3.74393   6.61471   6.61471
         1   5.88710   6.61471   6.61471
         1   8.03026   6.61471   6.61471
         1  10.17343   6.61471   6.61471
         1  12.31660   6.61471   6.61471
         1  14.45977   6.61471   6.61471
         1  16.60294   6.61471   6.61471
         1  18.74610   6.61471   6.61471
         1  20.88927   6.61471   6.61471
         1  23.03244   6.61471   6.61471
         1  25.17561   6.61471   6.61471
         1  27.31878   6.61471   6.61471
         1  29.46194   6.61471   6.61471
         1  31.60511   6.61471   6.61471
         1  33.74828   6.61471   6.61471
         1  35.89145   6.61471   6.61471
   BEGIN_BLOCK_DATAGRID_3D
   Generated with YPP  4   4   0
   BEGIN_DATAGRID_3D
    120   45   45
    0.00      0.00      0.00    
    36.43385   0.00000   0.00000
     0.00000  13.22943   0.00000
     0.00000   0.00000  13.22943
   0.3082E-8
   0.5700E-7
   0.1127E-7
   0.4052E-8
   0.1129E-7
   0.1313E-7
   0.4330E-7
   0.3213E-8
   0.5730E-7
   0.1109E-7
   0.4229E-8
   0.1094E-7
   0.1375E-7
   0.4415E-7
   0.3539E-8
   0.5833E-7
   0.1103E-7
   0.4143E-8
   0.1072E-7
   0.1427E-7
   0.4460E-7
   0.4060E-8
   0.5951E-7
   0.1112E-7
   0.3811E-8
   0.1047E-7
   0.1441E-7
   0.4451E-7
   0.4623E-8
   0.5970E-7
   0.1124E-7
   0.3548E-8
   0.9883E-8
   0.1423E-7
   0.4443E-7
   0.5054E-8
   0.5851E-7
   0.1126E-7
   0.3622E-8
   0.8936E-8
   0.1404E-7
   0.4506E-7
   0.5298E-8
   0.5682E-7
   0.1129E-7
   0.4004E-8
   0.8033E-8
   0.1403E-7
   0.4638E-7
   0.5426E-8
   0.5585E-7
   0.1148E-7
   0.4365E-8
   0.7589E-8
   0.1408E-7
   0.4755E-7
   0.5536E-8
   0.5595E-7
   0.1184E-7
   0.4390E-8
   0.7610E-8
   0.1395E-7
   0.4787E-7
   0.5689E-8
   0.5626E-7
   0.1218E-7
   0.4150E-8
   0.7665E-8
   0.1363E-7
   0.4766E-7
   0.5924E-8
   0.5580E-7
   0.1235E-7
   0.4009E-8
   0.7298E-8
   0.1332E-7
   0.4797E-7
   0.6255E-8
   0.5451E-7
   0.1247E-7
   0.4220E-8
   0.6533E-8
   0.1316E-7
   0.4947E-7
   0.6615E-8
   0.5328E-7
   0.1276E-7
   0.4728E-8
   0.5828E-8
   0.1310E-7
   0.5167E-7
   0.6837E-8
   0.5280E-7
   0.1328E-7
   0.5263E-8
   0.5543E-8
   0.1296E-7
   0.5338E-7
   0.6768E-8
   0.5289E-7
   0.1377E-7
   0.5632E-8
   0.5618E-8
   0.1275E-7
   0.5396E-7
   0.6448E-8
   0.5283E-7
   0.1386E-7
   0.5908E-8
   0.5695E-8
   0.1267E-7
   0.5388E-7
   0.6114E-8
   0.5225E-7
   0.1353E-7
   0.6264E-8
   0.5490E-8
   0.1287E-7
   0.5404E-7
   0.3082E-8
   0.1000E-7
   0.1291E-8
   0.679E-09
   0.1334E-8
   0.818E-09
   0.189E-09
   0.1542E-8
   0.1021E-7
   0.1369E-8
   0.734E-09
   0.1398E-8
   0.764E-09
   0.163E-09
   0.1510E-8
   0.1015E-7
   0.1350E-8
   0.729E-09
   0.1368E-8
   0.753E-09
   0.150E-09
   0.1502E-8
   0.1001E-7
   0.1306E-8
   0.683E-09
   0.1243E-8
   0.805E-09
   0.178E-09
   0.1603E-8
   0.1006E-7
   0.1347E-8
   0.660E-09
   0.1131E-8
   0.864E-09
   0.237E-09
   0.1763E-8
   0.1031E-7
   0.1493E-8
   0.683E-09
   0.1114E-8
   0.861E-09
   0.283E-09
   0.1842E-8
   0.1051E-7
   0.1636E-8
   0.708E-09
   0.1169E-8
   0.805E-09
   0.282E-09
   0.1771E-8
   0.1045E-7
   0.1653E-8
   0.680E-09
   0.1195E-8
   0.776E-09
   0.263E-09
   0.1658E-8
   0.1025E-7
   0.1566E-8
   0.608E-09
   0.1134E-8
   0.818E-09
   0.274E-09
   0.1650E-8
   0.1019E-7
   0.1520E-8
   0.559E-09
   0.1040E-8
   0.893E-09
   0.325E-09
   0.1770E-8
   0.1038E-7
   0.1609E-8
   0.572E-09
   0.1004E-8
   0.914E-09
   0.382E-09
   0.1898E-8
   0.1064E-7
   0.1780E-8
   0.613E-09
   0.1043E-8
   0.861E-09
   0.404E-09
   0.1895E-8
   0.1069E-7
   0.1881E-8
   0.607E-09
   0.1083E-8
   0.809E-09
   0.400E-09
   0.1777E-8
   0.1054E-7
   0.1841E-8
   0.529E-09
   0.1051E-8
   0.836E-09
   0.415E-09
   0.1685E-8
   0.1042E-7
   0.1751E-8
   0.439E-09
   0.967E-09
   0.940E-09
   0.472E-09
   0.1709E-8
   0.1055E-7
   0.1740E-8
   0.404E-09
   0.915E-09
   0.1038E-8
   0.535E-09
   0.1794E-8
   0.1082E-7
   0.1821E-8
   0.427E-09
   0.936E-09
   0.1052E-8
   0.549E-09
   0.1815E-8
   0.1000E-7
   0.1159E-8
   0.1149E-8
   0.305E-09
   0.842E-09
   0.1354E-8
   0.153E-09
   0.1306E-8
   0.1163E-8
   0.1260E-8
   0.286E-09
   0.837E-09
   0.1531E-8
   0.172E-09
   0.1229E-8
   0.1098E-8
   0.1316E-8
   0.343E-09
   0.854E-09
   0.1611E-8
   0.165E-09
   0.1093E-8
   0.1072E-8
   0.1301E-8
   0.457E-09
   0.879E-09
   0.1502E-8
   0.137E-09
   0.1013E-8
   0.1176E-8
   0.1270E-8
   0.527E-09
   0.861E-09
   0.1316E-8
   0.124E-09
   0.1021E-8
   0.1379E-8
   0.1263E-8
   0.474E-09
   0.791E-09
   0.1220E-8
   0.157E-09
   0.1071E-8
   0.1531E-8
   0.1265E-8
   0.366E-09
   0.737E-09
   0.1256E-8
   0.227E-09
   0.1099E-8
   0.1515E-8
   0.1247E-8
   0.313E-09
   0.765E-09
   0.1329E-8
   0.274E-09
   0.1093E-8
   0.1408E-8
   0.1218E-8
   0.349E-09
   0.866E-09
   0.1307E-8
   0.249E-09
   0.1088E-8
   0.1382E-8
   0.1209E-8
   0.425E-09
   0.948E-09
   0.1180E-8
   0.195E-09
   0.1108E-8
   0.1510E-8
   0.1223E-8
   0.448E-09
   0.929E-09
   0.1057E-8
   0.188E-09
   0.1133E-8
   0.1690E-8
   0.1213E-8
   0.383E-09
   0.853E-09
   0.1021E-8
   0.257E-09
   0.1141E-8
   0.1743E-8
   0.1144E-8
   0.302E-09
   0.843E-09
   0.1060E-8
   0.368E-09
   0.1148E-8
   0.1619E-8
   0.1058E-8
   0.271E-09
   0.961E-09
   0.1097E-8
   0.424E-09
   0.1190E-8
   0.1460E-8
   0.1041E-8
   0.289E-09
   0.1150E-8
   0.1090E-8
   0.377E-09
   0.1262E-8
   0.1408E-8
   0.1139E-8
   0.314E-09
   0.1255E-8
   0.1073E-8
   0.301E-09
   0.1298E-8
   0.1467E-8
   0.1297E-8
   0.308E-09
   0.1200E-8
   0.1089E-8
   0.276E-09
   0.1237E-8
   0.1159E-8
   0.2009E-8
   0.3339E-8
   0.294E-09
   0.1036E-8
   0.2394E-8
   0.119E-10
   0.2356E-8
   0.2164E-8
   0.3200E-8
   0.338E-09
   0.1075E-8
   0.2145E-8
   0.114E-10
   0.2469E-8
   0.2435E-8
   0.3177E-8
   0.307E-09
   0.1085E-8
   0.1993E-8
   0.175E-10
   0.2631E-8
   0.2653E-8
   0.3238E-8
   0.236E-09
   0.1065E-8
   0.2020E-8
   0.365E-10
   0.2678E-8
   0.2659E-8
   0.3260E-8
   0.197E-09
   0.1066E-8
   0.2125E-8
   0.590E-10
   0.2597E-8
   0.2526E-8
   0.3192E-8
   0.219E-09
   0.1120E-8
   0.2134E-8
   0.604E-10
   0.2524E-8
   0.2491E-8
   0.3118E-8
   0.273E-09
   0.1183E-8
   0.1990E-8
   0.444E-10
   0.2568E-8
   0.2692E-8
   0.3126E-8
   0.290E-09
   0.1189E-8
   0.1809E-8
   0.382E-10
   0.2694E-8
   0.3023E-8
   0.3185E-8
   0.242E-09
   0.1140E-8
   0.1718E-8
   0.575E-10
   0.2779E-8
   0.3207E-8
   0.3175E-8
   0.182E-09
   0.1122E-8
   0.1723E-8
   0.101E-09
   0.2768E-8
   0.3108E-8
   0.3049E-8
   0.162E-09
   0.1207E-8
   0.1731E-8
   0.132E-09
   0.2738E-8
   0.2903E-8
   0.2913E-8
   0.185E-09
   0.1359E-8
   0.1667E-8
   0.119E-09
   0.2780E-8
   0.2858E-8
   0.2897E-8
   0.215E-09
   0.1454E-8
   0.1561E-8
   0.913E-10
   0.2873E-8
   0.3044E-8
   0.2994E-8
   0.207E-09
   0.1412E-8
   0.1490E-8
   0.922E-10
   0.2916E-8
   0.3289E-8
   0.3050E-8
   0.166E-09
   0.1316E-8
   0.1466E-8
   0.137E-09
   0.2867E-8
   0.3359E-8
   0.2934E-8
   0.131E-09
   0.1314E-8
   0.1434E-8
   0.206E-09
   0.2820E-8
   0.3227E-8
   0.2719E-8
   0.120E-09
   0.1463E-8
   0.1348E-8
   0.241E-09
   0.2894E-8
   0.2009E-8
   0.2658E-8
   0.1309E-7
   0.8250E-8
   0.1989E-8
   0.2868E-8
   0.6687E-8
   0.1103E-7
   0.2532E-8
   0.1327E-7
   0.8447E-8
   0.1825E-8
   0.2902E-8
   0.6555E-8
   0.1090E-7
   0.2534E-8
   0.1302E-7
   0.8543E-8
   0.1797E-8
   0.2847E-8
   0.6410E-8
   0.1099E-7
   0.2584E-8
   0.1269E-7
   0.8598E-8
   0.1943E-8
   0.2694E-8
   0.6549E-8
   0.1154E-7
   0.2567E-8
   0.1275E-7
   0.8721E-8
   0.2144E-8
   0.2563E-8
   0.6967E-8
   0.1229E-7
   0.2483E-8
   0.1322E-7
   0.8879E-8
   0.2239E-8
   0.2557E-8
   0.7368E-8
   0.1268E-7
   0.2452E-8
   0.1362E-7
   0.8899E-8
   0.2203E-8
   0.2641E-8
   0.7480E-8
   0.1245E-7
   0.2558E-8
   0.1350E-7
   0.8700E-8
   0.2158E-8
   0.2686E-8
   0.7360E-8
   0.1203E-7
   0.2736E-8
   0.1301E-7
   0.8458E-8
   0.2204E-8
   0.2624E-8
   0.7297E-8
   0.1198E-7
   0.2820E-8
   0.1274E-7
   0.8434E-8
   0.2300E-8
   0.2540E-8
   0.7473E-8
   0.1246E-7
   0.2733E-8
   0.1306E-7
   0.8675E-8
   0.2327E-8
   0.2554E-8
   0.7799E-8
   0.1302E-7
   0.2580E-8
   0.1370E-7
   0.8911E-8
   0.2249E-8
   0.2658E-8
   0.8061E-8
   0.1314E-7
   0.2507E-8
   0.1404E-7
   0.8826E-8
   0.2164E-8
   0.2700E-8
   0.8171E-8
   0.1284E-7
   0.2534E-8
   0.1375E-7
   0.8431E-8
   0.2183E-8
   0.2550E-8
   0.8233E-8
   0.1261E-7
   0.2555E-8
   0.1316E-7
   0.8079E-8
   0.2301E-8
   0.2286E-8
   0.8353E-8
   0.1282E-7
   0.2485E-8
   0.1282E-7
   0.8065E-8
   0.2410E-8
   0.2104E-8
   0.8480E-8
   0.1334E-7
   0.2379E-8
   0.1287E-7
   0.8320E-8
   0.2434E-8
   0.2108E-8
   0.8490E-8
   0.1370E-7
   0.2658E-8
   0.2222E-8
   0.1661E-7
   0.743E-10
   0.1314E-7
   0.1860E-7
   0.816E-09
   0.1276E-7
   0.1945E-8
   0.1670E-7
   0.766E-10
   0.1261E-7
   0.1846E-7
   0.682E-09
   0.1239E-7
   0.1796E-8
   0.1620E-7
   0.812E-10
   0.1252E-7
   0.1802E-7
   0.545E-09
   0.1235E-7
   0.1742E-8
   0.1561E-7
   0.914E-10
   0.1298E-7
   0.1739E-7
   0.509E-09
   0.1288E-7
   0.1684E-8
   0.1551E-7
   0.111E-09
   0.1356E-7
   0.1695E-7
   0.572E-09
   0.1362E-7
   0.1581E-8
   0.1593E-7
   0.132E-09
   0.1376E-7
   0.1690E-7
   0.636E-09
   0.1393E-7
   0.1484E-8
   0.1626E-7
   0.132E-09
   0.1354E-7
   0.1702E-7
   0.600E-09
   0.1357E-7
   0.1449E-8
   0.1594E-7
   0.109E-09
   0.1334E-7
   0.1689E-7
   0.480E-09
   0.1306E-7
   0.1455E-8
   0.1516E-7
   0.926E-10
   0.1352E-7
   0.1638E-7
   0.375E-09
   0.1303E-7
   0.1432E-8
   0.1462E-7
   0.112E-09
   0.1396E-7
   0.1584E-7
   0.338E-09
   0.1362E-7
   0.1353E-8
   0.1478E-7
   0.176E-09
   0.1427E-7
   0.1570E-7
   0.349E-09
   0.1430E-7
   0.1270E-8
   0.1536E-7
   0.247E-09
   0.1423E-7
   0.1592E-7
   0.359E-09
   0.1448E-7
   0.1236E-8
   0.1565E-7
   0.258E-09
   0.1406E-7
   0.1601E-7
   0.338E-09
   0.1417E-7
   0.1235E-8
   0.1523E-7
   0.213E-09
   0.1413E-7
   0.1553E-7
   0.297E-09
   0.1395E-7
   0.1202E-8
   0.1446E-7
   0.185E-09
   0.1453E-7
   0.1468E-7
   0.258E-09
   0.1428E-7
   0.1122E-8
   0.1397E-7
   0.227E-09
   0.1505E-7
   0.1404E-7
   0.224E-09
   0.1501E-7
   0.1067E-8
   0.1400E-7
   0.336E-09
   0.1544E-7
   0.1399E-7
   0.190E-09
   0.1555E-7
   0.2222E-8
   0.209E-09
   0.1774E-7
   0.4757E-8
   0.5434E-8
   0.7857E-8
   0.2491E-8
   0.1791E-7
   0.200E-09
   0.1778E-7
   0.4608E-8
   0.5727E-8
   0.7632E-8
   0.2677E-8
   0.1848E-7
   0.156E-09
   0.1829E-7
   0.4727E-8
   0.5779E-8
   0.7588E-8
   0.2789E-8
   0.1901E-7
   0.107E-09
   0.1911E-7
   0.5083E-8
   0.5620E-8
   0.7727E-8
   0.2810E-8
   0.1936E-7
   0.871E-10
   0.1964E-7
   0.5328E-8
   0.5604E-8
   0.7769E-8
   0.2879E-8
   0.1965E-7
   0.990E-10
   0.1954E-7
   0.5162E-8
   0.5991E-8
   0.7513E-8
   0.3106E-8
   0.2007E-7
   0.128E-09
   0.1909E-7
   0.4713E-8
   0.6638E-8
   0.7154E-8
   0.3402E-8
   0.2050E-7
   0.150E-09
   0.1888E-7
   0.4384E-8
   0.7072E-8
   0.7097E-8
   0.3527E-8
   0.2061E-7
   0.158E-09
   0.1924E-7
   0.4403E-8
   0.6983E-8
   0.7498E-8
   0.3393E-8
   0.2025E-7
   0.164E-09
   0.1992E-7
   0.4645E-8
   0.6596E-8
   0.8050E-8
   0.3217E-8
   0.1976E-7
   0.173E-09
   0.2047E-7
   0.4786E-8
   0.6377E-8
   0.8222E-8
   0.3293E-8
   0.1967E-7
   0.165E-09
   0.2070E-7
   0.4658E-8
   0.6526E-8
   0.7842E-8
   0.3688E-8
   0.2020E-7
   0.129E-09
   0.2077E-7
   0.4411E-8
   0.6843E-8
   0.7291E-8
   0.4162E-8
   0.2093E-7
   0.860E-10
   0.2091E-7
   0.4269E-8
   0.7009E-8
   0.7025E-8
   0.4371E-8
   0.2124E-7
   0.651E-10
   0.2105E-7
   0.4256E-8
   0.6970E-8
   0.7100E-8
   0.4264E-8
   0.2094E-7
   0.731E-10
   0.2097E-7
   0.4207E-8
   0.6969E-8
   0.7176E-8
   0.4132E-8
   0.2047E-7
   0.981E-10
   0.2063E-7
   0.4013E-8
   0.7208E-8
   0.6949E-8
   0.4235E-8
   0.2038E-7
   0.209E-09
   0.1192E-7
   0.8558E-8
   0.1811E-8
   0.1122E-7
   0.1185E-7
   0.1444E-8
   0.8639E-8
   0.1182E-7
   0.8456E-8
   0.1646E-8
   0.1133E-7
   0.1140E-7
   0.1538E-8
   0.8822E-8
   0.1129E-7
   0.8490E-8
   0.1705E-8
   0.1132E-7
   0.1109E-7
   0.1500E-8
   0.9148E-8
   0.1091E-7
   0.8619E-8
   0.1949E-8
   0.1127E-7
   0.1125E-7
   0.1344E-8
   0.9327E-8
   0.1114E-7
   0.8678E-8
   0.2151E-8
   0.1141E-7
   0.1170E-7
   0.1234E-8
   0.9304E-8
   0.1184E-7
   0.8633E-8
   0.2115E-8
   0.1179E-7
   0.1201E-7
   0.1295E-8
   0.9283E-8
   0.1238E-7
   0.8643E-8
   0.1927E-8
   0.1217E-7
   0.1197E-7
   0.1496E-8
   0.9441E-8
   0.1228E-7
   0.8854E-8
   0.1827E-8
   0.1224E-7
   0.1180E-7
   0.1656E-8
   0.9691E-8
   0.1182E-7
   0.9187E-8
   0.1915E-8
   0.1204E-7
   0.1187E-7
   0.1637E-8
   0.9789E-8
   0.1167E-7
   0.9408E-8
   0.2063E-8
   0.1190E-7
   0.1221E-7
   0.1527E-8
   0.9641E-8
   0.1210E-7
   0.9400E-8
   0.2050E-8
   0.1207E-7
   0.1253E-7
   0.1527E-8
   0.9415E-8
   0.1268E-7
   0.9317E-8
   0.1838E-8
   0.1238E-7
   0.1252E-7
   0.1710E-8
   0.9321E-8
   0.1275E-7
   0.9375E-8
   0.1619E-8
   0.1242E-7
   0.1227E-7
   0.1933E-8
   0.9366E-8
   0.1218E-7
   0.9566E-8
   0.1569E-8
   0.1206E-7
   0.1205E-7
   0.1961E-8
   0.9381E-8
   0.1154E-7
   0.9647E-8
   0.1684E-8
   0.1162E-7
   0.1203E-7
   0.1763E-8
   0.9276E-8
   0.1144E-7
   0.9446E-8
   0.1814E-8
   0.1159E-7
   0.1208E-7
   0.1561E-8
   0.9183E-8
   0.1187E-7
   0.9127E-8
   0.1823E-8
   0.1203E-7
   0.1204E-7
   0.1549E-8
   0.9277E-8
   0.1192E-7
   0.3370E-8
   0.1915E-7
   0.4346E-8
   0.8928E-8
   0.1170E-7
   0.3498E-8
   0.1736E-7
   0.3305E-8
   0.1959E-7
   0.4553E-8
   0.8811E-8
   0.1207E-7
   0.3398E-8
   0.1718E-7
   0.3449E-8
   0.1969E-7
   0.4526E-8
   0.8835E-8
   0.1225E-7
   0.3422E-8
   0.1700E-7
   0.3533E-8
   0.1970E-7
   0.4368E-8
   0.8988E-8
   0.1190E-7
   0.3721E-8
   0.1736E-7
   0.3320E-8
   0.1990E-7
   0.4305E-8
   0.9122E-8
   0.1125E-7
   0.4147E-8
   0.1825E-7
   0.2944E-8
   0.2016E-7
   0.4399E-8
   0.9181E-8
   0.1080E-7
   0.4356E-8
   0.1901E-7
   0.2761E-8
   0.2007E-7
   0.4469E-8
   0.9295E-8
   0.1083E-7
   0.4188E-8
   0.1903E-7
   0.2949E-8
   0.1952E-7
   0.4329E-8
   0.9585E-8
   0.1115E-7
   0.3874E-8
   0.1846E-7
   0.3332E-8
   0.1897E-7
   0.4068E-8
   0.9929E-8
   0.1135E-7
   0.3741E-8
   0.1801E-7
   0.3494E-8
   0.1902E-7
   0.3973E-8
   0.1003E-7
   0.1123E-7
   0.3873E-8
   0.1817E-7
   0.3233E-8
   0.1973E-7
   0.4212E-8
   0.9767E-8
   0.1096E-7
   0.4083E-8
   0.1877E-7
   0.2826E-8
   0.2048E-7
   0.4630E-8
   0.9424E-8
   0.1077E-7
   0.4152E-8
   0.1931E-7
   0.2651E-8
   0.2056E-7
   0.4857E-8
   0.9423E-8
   0.1067E-7
   0.4095E-8
   0.1951E-7
   0.2797E-8
   0.1995E-7
   0.4697E-8
   0.9892E-8
   0.1050E-7
   0.4117E-8
   0.1960E-7
   0.3039E-8
   0.1934E-7
   0.4361E-8
   0.1052E-7
   0.1023E-7
   0.4327E-8
   0.1989E-7
   0.3082E-8
   0.1929E-7
   0.4181E-8
   0.1083E-7
   0.9986E-8
   0.4592E-8
   0.2029E-7
   0.2912E-8
   0.1967E-7
   0.4238E-8
   0.1072E-7
   0.9930E-8
   0.4679E-8
   0.2045E-7
   0.3370E-8
   0.4153E-7
   0.2461E-8
   0.240E-09
   0.2561E-7
   0.1972E-7
   0.593E-10
   0.4679E-8
   0.4183E-7
   0.2624E-8
   0.246E-09
   0.2507E-7
   0.2042E-7
   0.415E-10
   0.4372E-8
   0.4254E-7
   0.2519E-8
   0.208E-09
   0.2519E-7
   0.2053E-7
   0.275E-10
   0.4159E-8
   0.4359E-7
   0.2255E-8
   0.154E-09
   0.2602E-7
   0.2028E-7
   0.244E-10
   0.4175E-8
   0.4454E-7
   0.2120E-8
   0.143E-09
   0.2670E-7
   0.2047E-7
   0.228E-10
   0.4317E-8
   0.4514E-7
   0.2276E-8
   0.200E-09
   0.2648E-7
   0.2157E-7
   0.147E-10
   0.4384E-8
   0.4551E-7
   0.2647E-8
   0.304E-09
   0.2566E-7
   0.2314E-7
   0.738E-11
   0.4326E-8
   0.4595E-7
   0.2988E-8
   0.356E-09
   0.2529E-7
   0.2408E-7
   0.109E-10
   0.4297E-8
   0.4648E-7
   0.3130E-8
   0.291E-09
   0.2597E-7
   0.2390E-7
   0.422E-10
   0.4406E-8
   0.4691E-7
   0.3153E-8
   0.182E-09
   0.2716E-7
   0.2326E-7
   0.113E-09
   0.4524E-8
   0.4717E-7
   0.3231E-8
   0.115E-09
   0.2766E-7
   0.2323E-7
   0.166E-09
   0.4377E-8
   0.4745E-7
   0.3381E-8
   0.956E-10
   0.2695E-7
   0.2410E-7
   0.142E-09
   0.3908E-8
   0.4791E-7
   0.3460E-8
   0.927E-10
   0.2571E-7
   0.2516E-7
   0.872E-10
   0.3406E-8
   0.4836E-7
   0.3380E-8
   0.821E-10
   0.2500E-7
   0.2549E-7
   0.624E-10
   0.3190E-8
   0.4842E-7
   0.3261E-8
   0.693E-10
   0.2509E-7
   0.2510E-7
   0.737E-10
   0.3313E-8
   0.4803E-7
   0.3300E-8
   0.739E-10
   0.2537E-7
   0.2487E-7
   0.991E-10
   0.3533E-8
   0.4762E-7
   0.3551E-8
   0.102E-09
   0.2513E-7
   0.2545E-7
   0.105E-09
   0.3538E-8
   0.4153E-7
   0.2060E-8
   0.620E-09
   0.2005E-8
   0.340E-10
   0.116E-10
   0.1405E-8
   0.459E-09
   0.2193E-8
   0.577E-09
   0.1984E-8
   0.667E-10
   0.516E-11
   0.1575E-8
   0.571E-09
   0.2201E-8
   0.666E-09
   0.2062E-8
   0.763E-10
   0.848E-11
   0.1760E-8
   0.640E-09
   0.2173E-8
   0.821E-09
   0.2162E-8
   0.461E-10
   0.264E-10
   0.1823E-8
   0.574E-09
   0.2223E-8
   0.875E-09
   0.2137E-8
   0.179E-10
   0.458E-10
   0.1784E-8
   0.454E-09
   0.2335E-8
   0.766E-09
   0.1972E-8
   0.114E-10
   0.373E-10
   0.1780E-8
   0.413E-09
   0.2371E-8
   0.632E-09
   0.1824E-8
   0.189E-10
   0.154E-10
   0.1880E-8
   0.489E-09
   0.2243E-8
   0.613E-09
   0.1833E-8
   0.268E-10
   0.656E-11
   0.1997E-8
   0.602E-09
   0.2048E-8
   0.705E-09
   0.1984E-8
   0.188E-10
   0.967E-11
   0.1985E-8
   0.620E-09
   0.1964E-8
   0.779E-09
   0.2126E-8
   0.720E-11
   0.181E-10
   0.1836E-8
   0.533E-09
   0.2059E-8
   0.713E-09
   0.2133E-8
   0.575E-11
   0.161E-10
   0.1706E-8
   0.474E-09
   0.2240E-8
   0.573E-09
   0.2061E-8
   0.178E-10
   0.532E-11
   0.1729E-8
   0.534E-09
   0.2346E-8
   0.509E-09
   0.2057E-8
   0.414E-10
   0.153E-11
   0.1886E-8
   0.686E-09
   0.2330E-8
   0.577E-09
   0.2163E-8
   0.461E-10
   0.640E-11
   0.2030E-8
   0.782E-09
   0.2301E-8
   0.707E-09
   0.2254E-8
   0.260E-10
   0.286E-10
   0.2052E-8
   0.721E-09
   0.2363E-8
   0.751E-09
   0.2181E-8
   0.111E-10
   0.505E-10
   0.2010E-8
   0.596E-09
   0.2473E-8
   0.666E-09
   0.1970E-8
   0.102E-10
   0.404E-10
   0.2038E-8
   0.551E-09
   0.2060E-8
   0.635E-09
   0.1155E-7
   0.5635E-8
   0.9320E-8
   0.7788E-8
   0.364E-09
   0.2081E-7
   0.764E-09
   0.1196E-7
   0.5403E-8
   0.1005E-7
   0.7926E-8
   0.525E-09
   0.2165E-7
   0.786E-09
   0.1286E-7
   0.5385E-8
   0.1035E-7
   0.8292E-8
   0.683E-09
   0.2224E-7
   0.768E-09
   0.1397E-7
   0.5504E-8
   0.1022E-7
   0.8931E-8
   0.746E-09
   0.2216E-7
   0.819E-09
   0.1468E-7
   0.5478E-8
   0.1015E-7
   0.9500E-8
   0.758E-09
   0.2176E-7
   0.966E-09
   0.1480E-7
   0.5179E-8
   0.1057E-7
   0.9680E-8
   0.843E-09
   0.2177E-7
   0.1126E-8
   0.1486E-7
   0.4801E-8
   0.1136E-7
   0.9628E-8
   0.1061E-8
   0.2239E-7
   0.1197E-8
   0.1549E-7
   0.4601E-8
   0.1194E-7
   0.9823E-8
   0.1339E-8
   0.2301E-7
   0.1200E-8
   0.1672E-7
   0.4584E-8
   0.1192E-7
   0.1049E-7
   0.1534E-8
   0.2286E-7
   0.1236E-8
   0.1791E-7
   0.4508E-8
   0.1154E-7
   0.1130E-7
   0.1621E-8
   0.2197E-7
   0.1352E-8
   0.1844E-7
   0.4172E-8
   0.1138E-7
   0.1168E-7
   0.1739E-8
   0.2116E-7
   0.1468E-8
   0.1847E-7
   0.3690E-8
   0.1167E-7
   0.1147E-7
   0.2011E-8
   0.2104E-7
   0.1468E-8
   0.1869E-7
   0.3339E-8
   0.1206E-7
   0.1116E-7
   0.2392E-8
   0.2143E-7
   0.1370E-8
   0.1949E-7
   0.3224E-8
   0.1209E-7
   0.1129E-7
   0.2702E-8
   0.2152E-7
   0.1310E-8
   0.2053E-7
   0.3177E-8
   0.1175E-7
   0.1186E-7
   0.2850E-8
   0.2084E-7
   0.1379E-8
   0.2115E-7
   0.2950E-8
   0.1144E-7
   0.1235E-7
   0.2977E-8
   0.1979E-7
   0.1518E-8
   0.2122E-7
   0.2510E-8
   0.1146E-7
   0.1234E-7
   0.3283E-8
   0.1905E-7
   0.635E-09
   0.4299E-7
   0.8414E-8
   0.8223E-8
   0.2013E-7
   0.1179E-7
   0.9337E-8
   0.3045E-8
   0.4451E-7
   0.8404E-8
   0.8733E-8
   0.2095E-7
   0.1208E-7
   0.8952E-8
   0.2993E-8
   0.4479E-7
   0.8018E-8
   0.9025E-8
   0.2113E-7
   0.1246E-7
   0.8790E-8
   0.3075E-8
   0.4477E-7
   0.7675E-8
   0.9061E-8
   0.2071E-7
   0.1313E-7
   0.9266E-8
   0.3457E-8
   0.4565E-7
   0.7742E-8
   0.9056E-8
   0.2032E-7
   0.1395E-7
   0.1015E-7
   0.3984E-8
   0.4749E-7
   0.8086E-8
   0.9125E-8
   0.2045E-7
   0.1457E-7
   0.1075E-7
   0.4248E-8
   0.4909E-7
   0.8154E-8
   0.9121E-8
   0.2094E-7
   0.1495E-7
   0.1060E-7
   0.4053E-8
   0.4945E-7
   0.7585E-8
   0.8910E-8
   0.2124E-7
   0.1537E-7
   0.9984E-8
   0.3717E-8
   0.4905E-7
   0.6708E-8
   0.8689E-8
   0.2107E-7
   0.1608E-7
   0.9510E-8
   0.3705E-8
   0.4920E-7
   0.6168E-8
   0.8861E-8
   0.2069E-7
   0.1692E-7
   0.9454E-8
   0.4181E-8
   0.5046E-7
   0.6252E-8
   0.9578E-8
   0.2051E-7
   0.1745E-7
   0.9631E-8
   0.4877E-8
   0.5194E-7
   0.6670E-8
   0.1045E-7
   0.2054E-7
   0.1752E-7
   0.9757E-8
   0.5318E-8
   0.5233E-7
   0.6836E-8
   0.1079E-7
   0.2043E-7
   0.1755E-7
   0.9811E-8
   0.5344E-8
   0.5156E-7
   0.6465E-8
   0.1038E-7
   0.1992E-7
   0.1806E-7
   0.9973E-8
   0.5290E-8
   0.5091E-7
   0.5861E-8
   0.9759E-8
   0.1922E-7
   0.1908E-7
   0.1027E-7
   0.5526E-8
   0.5139E-7
   0.5463E-8
   0.9593E-8
   0.1874E-7
   0.2005E-7
   0.1042E-7
   0.6056E-8
   0.5254E-7
   0.5356E-8
   0.9997E-8
   0.1854E-7
   0.2042E-7
   0.1021E-7
   0.6537E-8
   0.4299E-7
   0.1409E-7
   0.125E-10
   0.2224E-8
   0.7259E-8
   0.7174E-8
   0.402E-09
   0.177E-09
   0.1431E-7
   0.228E-10
   0.2421E-8
   0.7448E-8
   0.6846E-8
   0.331E-09
   0.163E-09
   0.1386E-7
   0.196E-10
   0.2443E-8
   0.7230E-8
   0.6657E-8
   0.319E-09
   0.158E-09
   0.1326E-7
   0.189E-10
   0.2306E-8
   0.6736E-8
   0.6773E-8
   0.443E-09
   0.204E-09
   0.1316E-7
   0.403E-10
   0.2196E-8
   0.6418E-8
   0.6992E-8
   0.680E-09
   0.289E-09
   0.1358E-7
   0.954E-10
   0.2198E-8
   0.6524E-8
   0.6981E-8
   0.862E-09
   0.328E-09
   0.1395E-7
   0.143E-09
   0.2201E-8
   0.6862E-8
   0.6709E-8
   0.860E-09
   0.267E-09
   0.1374E-7
   0.125E-09
   0.2058E-8
   0.7009E-8
   0.6494E-8
   0.774E-09
   0.179E-09
   0.1320E-7
   0.775E-10
   0.1822E-8
   0.6801E-8
   0.6590E-8
   0.770E-09
   0.152E-09
   0.1297E-7
   0.629E-10
   0.1702E-8
   0.6512E-8
   0.6877E-8
   0.893E-09
   0.203E-09
   0.1331E-7
   0.102E-09
   0.1811E-8
   0.6479E-8
   0.6961E-8
   0.1056E-8
   0.295E-09
   0.1377E-7
   0.189E-09
   0.2023E-8
   0.6699E-8
   0.6655E-8
   0.1149E-8
   0.332E-09
   0.1375E-7
   0.254E-09
   0.2043E-8
   0.6859E-8
   0.6240E-8
   0.1193E-8
   0.277E-09
   0.1324E-7
   0.243E-09
   0.1749E-8
   0.6725E-8
   0.6135E-8
   0.1308E-8
   0.211E-09
   0.1288E-7
   0.208E-09
   0.1376E-8
   0.6449E-8
   0.6431E-8
   0.1535E-8
   0.195E-09
   0.1313E-7
   0.214E-09
   0.1190E-8
   0.6366E-8
   0.6808E-8
   0.1757E-8
   0.221E-09
   0.1377E-7
   0.265E-09
   0.1221E-8
   0.6573E-8
   0.6871E-8
   0.1819E-8
   0.233E-09
   0.1409E-7
   0.752E-10
   0.5258E-8
   0.907E-09
   0.181E-09
   0.1025E-8
   0.1657E-8
   0.2761E-8
   0.101E-09
   0.5059E-8
   0.794E-09
   0.188E-09
   0.785E-09
   0.1823E-8
   0.2921E-8
   0.193E-09
   0.5043E-8
   0.877E-09
   0.149E-09
   0.653E-09
   0.1811E-8
   0.3178E-8
   0.314E-09
   0.5137E-8
   0.1124E-8
   0.979E-10
   0.667E-09
   0.1598E-8
   0.3324E-8
   0.352E-09
   0.5106E-8
   0.1310E-8
   0.917E-10
   0.715E-09
   0.1408E-8
   0.3326E-8
   0.295E-09
   0.4867E-8
   0.1245E-8
   0.153E-09
   0.651E-09
   0.1429E-8
   0.3341E-8
   0.243E-09
   0.4603E-8
   0.1050E-8
   0.259E-09
   0.492E-09
   0.1627E-8
   0.3480E-8
   0.263E-09
   0.4526E-8
   0.977E-09
   0.301E-09
   0.387E-09
   0.1755E-8
   0.3656E-8
   0.335E-09
   0.4630E-8
   0.1117E-8
   0.233E-09
   0.415E-09
   0.1624E-8
   0.3699E-8
   0.374E-09
   0.4711E-8
   0.1341E-8
   0.154E-09
   0.536E-09
   0.1372E-8
   0.3593E-8
   0.335E-09
   0.4620E-8
   0.1407E-8
   0.142E-09
   0.603E-09
   0.1272E-8
   0.3521E-8
   0.293E-09
   0.4453E-8
   0.1266E-8
   0.199E-09
   0.503E-09
   0.1421E-8
   0.3637E-8
   0.329E-09
   0.4392E-8
   0.1126E-8
   0.260E-09
   0.336E-09
   0.1658E-8
   0.3887E-8
   0.458E-09
   0.4447E-8
   0.1167E-8
   0.248E-09
   0.239E-09
   0.1687E-8
   0.4068E-8
   0.582E-09
   0.4418E-8
   0.1373E-8
   0.195E-09
   0.229E-09
   0.1441E-8
   0.4080E-8
   0.571E-09
   0.4148E-8
   0.1555E-8
   0.192E-09
   0.250E-09
   0.1179E-8
   0.4069E-8
   0.452E-09
   0.3766E-8
   0.1554E-8
   0.283E-09
   0.234E-09
   0.1123E-8
   0.4231E-8
   0.752E-10
   0.913E-09
   0.3338E-8
   0.5087E-8
   0.2985E-8
   0.1519E-8
   0.6307E-8
   0.900E-09
   0.1020E-8
   0.3117E-8
   0.4855E-8
   0.3009E-8
   0.1918E-8
   0.6630E-8
   0.1013E-8
   0.1300E-8
   0.3047E-8
   0.5161E-8
   0.3172E-8
   0.2214E-8
   0.6605E-8
   0.1203E-8
   0.1544E-8
   0.3065E-8
   0.5865E-8
   0.3403E-8
   0.2198E-8
   0.6220E-8
   0.1314E-8
   0.1513E-8
   0.2999E-8
   0.6360E-8
   0.3463E-8
   0.2040E-8
   0.5916E-8
   0.1308E-8
   0.1287E-8
   0.2805E-8
   0.6215E-8
   0.3262E-8
   0.2041E-8
   0.6080E-8
   0.1306E-8
   0.1164E-8
   0.2631E-8
   0.5731E-8
   0.3021E-8
   0.2289E-8
   0.6607E-8
   0.1408E-8
   0.1303E-8
   0.2612E-8
   0.5545E-8
   0.3012E-8
   0.2586E-8
   0.6951E-8
   0.1573E-8
   0.1604E-8
   0.2702E-8
   0.5903E-8
   0.3252E-8
   0.2661E-8
   0.6717E-8
   0.1663E-8
   0.1758E-8
   0.2722E-8
   0.6463E-8
   0.3468E-8
   0.2516E-8
   0.6199E-8
   0.1628E-8
   0.1603E-8
   0.2578E-8
   0.6639E-8
   0.3385E-8
   0.2420E-8
   0.6026E-8
   0.1576E-8
   0.1364E-8
   0.2394E-8
   0.6300E-8
   0.3100E-8
   0.2567E-8
   0.6447E-8
   0.1629E-8
   0.1335E-8
   0.2330E-8
   0.5908E-8
   0.2963E-8
   0.2889E-8
   0.7072E-8
   0.1777E-8
   0.1578E-8
   0.2375E-8
   0.5918E-8
   0.3153E-8
   0.3138E-8
   0.7214E-8
   0.1895E-8
   0.1883E-8
   0.2341E-8
   0.6314E-8
   0.3481E-8
   0.3180E-8
   0.6690E-8
   0.1914E-8
   0.1943E-8
   0.2096E-8
   0.6687E-8
   0.3540E-8
   0.3145E-8
   0.6055E-8
   0.1927E-8
   0.1736E-8
   0.1765E-8
   0.6708E-8
   0.3190E-8
   0.3219E-8
   0.5887E-8
   0.2075E-8
   0.913E-09
   0.1655E-7
   0.3260E-8
   0.2080E-8
   0.1015E-7
   0.4864E-8
   0.4491E-8
   0.229E-09
   0.1707E-7
   0.3017E-8
   0.1989E-8
   0.1012E-7
   0.5619E-8
   0.4793E-8
   0.301E-09
   0.1819E-7
   0.2986E-8
   0.2200E-8
   0.1053E-7
   0.6092E-8
   0.4860E-8
   0.406E-09
   0.1936E-7
   0.3085E-8
   0.2639E-8
   0.1122E-7
   0.6107E-8
   0.4637E-8
   0.464E-09
   0.1988E-7
   0.3057E-8
   0.2902E-8
   0.1159E-7
   0.6082E-8
   0.4461E-8
   0.463E-09
   0.1978E-7
   0.2774E-8
   0.2697E-8
   0.1127E-7
   0.6515E-8
   0.4616E-8
   0.465E-09
   0.1984E-7
   0.2391E-8
   0.2281E-8
   0.1070E-7
   0.7425E-8
   0.4949E-8
   0.513E-09
   0.2063E-7
   0.2126E-8
   0.2120E-8
   0.1060E-7
   0.8261E-8
   0.4961E-8
   0.576E-09
   0.2182E-7
   0.2019E-8
   0.2408E-8
   0.1114E-7
   0.8484E-8
   0.4407E-8
   0.596E-09
   0.2254E-7
   0.1945E-8
   0.2965E-8
   0.1178E-7
   0.8256E-8
   0.3684E-8
   0.587E-09
   0.2239E-7
   0.1800E-8
   0.3361E-8
   0.1174E-7
   0.8241E-8
   0.3359E-8
   0.634E-09
   0.2194E-7
   0.1629E-8
   0.3380E-8
   0.1102E-7
   0.8821E-8
   0.3591E-8
   0.800E-09
   0.2204E-7
   0.1539E-8
   0.3277E-8
   0.1033E-7
   0.9715E-8
   0.4055E-8
   0.1043E-8
   0.2281E-7
   0.1535E-8
   0.3382E-8
   0.1023E-7
   0.1029E-7
   0.4192E-8
   0.1222E-8
   0.2350E-7
   0.1487E-8
   0.3707E-8
   0.1056E-7
   0.1031E-7
   0.3833E-8
   0.1259E-8
   0.2340E-7
   0.1289E-8
   0.3959E-8
   0.1062E-7
   0.1019E-7
   0.3382E-8
   0.1266E-8
   0.2269E-7
   0.1013E-8
   0.3915E-8
   0.1002E-7
   0.1043E-7
   0.3243E-8
   0.1398E-8
   0.1655E-7
   0.1199E-8
   0.1397E-7
   0.7475E-8
   0.5193E-8
   0.4972E-8
   0.3180E-8
   0.1735E-7
   0.1236E-8
   0.1467E-7
   0.7813E-8
   0.5030E-8
   0.5443E-8
   0.3108E-8
   0.1698E-7
   0.1435E-8
   0.1468E-7
   0.7632E-8
   0.5111E-8
   0.5627E-8
   0.3167E-8
   0.1674E-7
   0.1617E-8
   0.1432E-7
   0.7161E-8
   0.5483E-8
   0.5392E-8
   0.3453E-8
   0.1725E-7
   0.1586E-8
   0.1434E-7
   0.6989E-8
   0.5856E-8
   0.5123E-8
   0.3772E-8
   0.1827E-7
   0.1419E-8
   0.1504E-7
   0.7377E-8
   0.5954E-8
   0.5246E-8
   0.3849E-8
   0.1898E-7
   0.1382E-8
   0.1595E-7
   0.7961E-8
   0.5888E-8
   0.5784E-8
   0.3724E-8
   0.1890E-7
   0.1628E-8
   0.1641E-7
   0.8071E-8
   0.6006E-8
   0.6335E-8
   0.3758E-8
   0.1847E-7
   0.2042E-8
   0.1641E-7
   0.7498E-8
   0.6420E-8
   0.6497E-8
   0.4228E-8
   0.1840E-7
   0.2268E-8
   0.1655E-7
   0.6732E-8
   0.6807E-8