#                                                           
#  /$$     /$$ /$$$$$$  /$$      /$$ /$$$$$$$   /$$$$$$     
# |  $$   /$$//$$__  $$| $$$    /$$$| $$__  $$ /$$__  $$    
#  \  $$ /$$/| $$  \ $$| $$$$  /$$$$| $$  \ $$| $$  \ $$    
#   \  $$$$/ | $$$$$$$$| $$ $$/$$ $$| $$$$$$$ | $$  | $$    
#    \  $$/  | $$__  $$| $$  $$$| $$| $$__  $$| $$  | $$    
#     | $$   | $$  | $$| $$\  $ | $$| $$  \ $$| $$  | $$    
#     | $$   | $$  | $$| $$ \/  | $$| $$$$$$$/|  $$$$$$/    
#     |__/   |__/  |__/|__/     |__/|_______/  \______/     
#                                                           
#             GPL Version 4.1.2 Revision 120                
#                    MPI+OpenMP Build                       
#               http://www.yambo-code.org                   
#
# BSK|Identifier              :2450
#    |Dimension               :216
#    |Bands                   :2 - 6
#    |Exchange           [res]: yes
#    |Correlation        [res]: yes
#    |Kernel`s coupling       : no
#    |Exchange           [cpl]: no
#    |Correlation        [cpl]: no
#    |W interaction is bare   : no
#    |ALDA kernel in R-space  : no
#    |RL vectors    [exchange]:2755
#    |RL vectors [correlation]:111
#    |E/h energy range    [ev]:-1.000000 - -1.000000
#    |Coupling range     [o/o]: 100.0000 -  100.0000
#  W |Interaction is diagonal : no
#    |Matrix size             :111
#    |Bands                   :1 - 60
#    |e/h energy range    [ev]:-1.000000 - -1.000000
#    |Poles              [o/o]: 100.0000
#    |RL vectors in the sum   :3951
#    |[r,Vnl] included        : yes
#    |Field direction         :0.1000E-4  0.000000  0.000000
#    |Coulomb Cutoff          :box z
#    |xc-Kernel               :none
# RIM|RL components      [col]:0
#    |Random points      [col]:0
#
   CRYSTAL
   PRIMVEC
    12.47800   0.00000   0.00000
    -6.23900  10.80626   0.00000
     0.00000   0.00000  17.46920
   PRIMCOORD
     51    1
   -1   3.74340   5.04292   0.00000
       5   1.24780   0.72042   0.00000
       5   0.00000   2.88167   0.00000
       5  -1.24780   5.04292   0.00000
       5  -2.49560   7.20417   0.00000
       5  -3.74340   9.36543   0.00000
       5   3.74340   0.72042   0.00000
       5   2.49560   2.88167   0.00000
       5   1.24780   5.04292   0.00000
       5   0.00000   7.20417   0.00000
       5  -1.24780   9.36543   0.00000
       5   6.23900   0.72042   0.00000
       5   4.99120   2.88167   0.00000
       5   3.74340   5.04292   0.00000
       5   2.49560   7.20417   0.00000
       5   1.24780   9.36543   0.00000
       5   8.73460   0.72042   0.00000
       5   7.48680   2.88167   0.00000
       5   6.23900   5.04292   0.00000
       5   4.99120   7.20417   0.00000
       5   3.74340   9.36543   0.00000
       5  11.23020   0.72042   0.00000
       5   9.98240   2.88167   0.00000
       5   8.73460   5.04292   0.00000
       5   7.48680   7.20417   0.00000
       5   6.23900   9.36543   0.00000
       7  -1.24780  -0.72042   0.00000
       7  -2.49560   1.44083   0.00000
       7  -3.74340   3.60209   0.00000
       7  -4.99120   5.76334   0.00000
       7  -6.23900   7.92459   0.00000
       7   1.24780  -0.72042   0.00000
       7  -0.00000   1.44083   0.00000
       7  -1.24780   3.60209   0.00000
       7  -2.49560   5.76334   0.00000
       7  -3.74340   7.92459   0.00000
       7   3.74340  -0.72042   0.00000
       7   2.49560   1.44083   0.00000
       7   1.24780   3.60209   0.00000
       7   0.00000   5.76334   0.00000
       7  -1.24780   7.92459   0.00000
       7   6.23900  -0.72042   0.00000
       7   4.99120   1.44083   0.00000
       7   3.74340   3.60209   0.00000
       7   2.49560   5.76334   0.00000
       7   1.24780   7.92459   0.00000
       7   8.73460  -0.72042   0.00000
       7   7.48680   1.44083   0.00000
       7   6.23900   3.60209   0.00000
       7   4.99120   5.76334   0.00000
       7   3.74340   7.92459   0.00000
   BEGIN_BLOCK_DATAGRID_2D
   Generated with YPP  4   1   2
   BEGIN_DATAGRID_2D
     61   61
    0.000000  0.000000  8.734599
    12.47800   0.00000   0.00000
    -6.23900  10.80626   0.00000
     0.01005
     0.01000
      0.0088
      0.0070
      0.0054
      0.0048
      0.0047
      0.0046
      0.0047
      0.0058
      0.0076
      0.0084
      0.0074
      0.0048
      0.0025
      0.0024
      0.0045
      0.0068
      0.0077
      0.0068
      0.0045
      0.0024
      0.0025
      0.0048
      0.0074
      0.0084
      0.0076
      0.0058
      0.0047
      0.0046
      0.0047
      0.0048
      0.0054
      0.0069
      0.0088
      0.0100
     0.01004
      0.0092
      0.0079
      0.0069
      0.0062
      0.0055
      0.0044
      0.0033
      0.0025
      0.0019
      0.0014
      0.0011
   0.8762E-3
   0.8129E-3
   0.9174E-3
      0.0011
      0.0013
      0.0014
      0.0014
      0.0014
      0.0013
      0.0011
   0.9173E-3
   0.8122E-3
     0.01005
      0.0100
     0.01026
      0.0097
      0.0082
      0.0063
      0.0044
      0.0032
      0.0037
      0.0061
      0.0091
     0.01157
     0.01207
     0.01031
      0.0069
      0.0035
      0.0026
      0.0055
      0.0098
     0.01211
     0.01211
      0.0098
      0.0055
      0.0026
      0.0035
      0.0069
     0.01032
     0.01208
     0.01157
      0.0091
      0.0061
      0.0037
      0.0032
      0.0044
      0.0063
      0.0082
      0.0097
     0.01025
      0.0100
      0.0096
      0.0094
      0.0094
      0.0086
      0.0065
      0.0045
      0.0034
      0.0026
      0.0020
      0.0014
      0.0011
   0.8059E-3
   0.6881E-3
   0.6999E-3
   0.7436E-3
   0.7867E-3
   0.7684E-3
   0.7686E-3
   0.7871E-3
   0.7439E-3
   0.7000E-3
   0.6879E-3
      0.0100
      0.0099
      0.0098
      0.0096
      0.0088
      0.0074
      0.0059
      0.0045
      0.0051
      0.0093
     0.01399
     0.01682
     0.01773
     0.01589
     0.01132
      0.0058
      0.0031
      0.0057
     0.01148
     0.01555
     0.01670
     0.01555
     0.01147
      0.0057
      0.0031
      0.0058
     0.01132
     0.01590
     0.01773
     0.01683
     0.01399
      0.0093
      0.0051
      0.0045
      0.0058
      0.0074
      0.0088
      0.0096
      0.0098
      0.0099
     0.01055
     0.01187
     0.01245
      0.0099
      0.0060
      0.0043
      0.0036
      0.0028
      0.0022
      0.0016
      0.0012
   0.9018E-3
   0.6915E-3
   0.5817E-3
   0.5156E-3
   0.4321E-3
   0.3646E-3
   0.4324E-3
   0.5159E-3
   0.5820E-3
   0.6917E-3
      0.0099
     0.01007
      0.0090
      0.0088
      0.0085
      0.0077
      0.0067
      0.0058
      0.0057
      0.0096
     0.01636
     0.02047
     0.02320
     0.02413
     0.02042
     0.01257
      0.0058
      0.0061
     0.01333
     0.01956
     0.02178
     0.02178
     0.01956
     0.01333
      0.0061
      0.0058
     0.01257
     0.02043
     0.02414
     0.02321
     0.02048
     0.01636
      0.0096
      0.0057
      0.0058
      0.0066
      0.0077
      0.0084
      0.0088
      0.0090
     0.01007
     0.01236
     0.01492
     0.01442
      0.0090
      0.0054
      0.0047
      0.0039
      0.0032
      0.0025
      0.0020
      0.0015
      0.0011
   0.7270E-3
   0.5076E-3
   0.3341E-3
   0.1575E-3
   0.1576E-3
   0.3344E-3
   0.5081E-3
   0.7277E-3
     0.01007
     0.01063
      0.0083
      0.0077
      0.0079
      0.0076
      0.0068
      0.0064
      0.0065
      0.0072
     0.01204
     0.01840
     0.02403
     0.02898
     0.03006
     0.02401
     0.01391
      0.0092
     0.01556
     0.02740
     0.03305
     0.03372
     0.03305
     0.02740
     0.01556
      0.0092
     0.01391
     0.02401
     0.03007
     0.02899
     0.02404
     0.01840
     0.01204
      0.0072
      0.0065
      0.0064
      0.0068
      0.0076
      0.0079
      0.0077
      0.0083
     0.01063
     0.01435
     0.01682
     0.01366
      0.0076
      0.0057
      0.0050
      0.0043
      0.0036
      0.0030
      0.0024
      0.0018
      0.0012
   0.7635E-3
   0.4183E-3
   0.1521E-3
   0.7162E-6
   0.1524E-3
   0.4190E-3
   0.7647E-3
     0.01063
     0.01093
      0.0081
      0.0071
      0.0077
      0.0083
      0.0076
      0.0072
      0.0087
     0.01068
     0.01118
     0.01363
     0.01916
     0.02670
     0.03507
     0.03947
     0.03077
     0.01962
     0.02131
     0.03509
     0.05127
     0.05851
     0.05852
     0.05128
     0.03509
     0.02131
     0.01961
     0.03076
     0.03947
     0.03508
     0.02670
     0.01916
     0.01363
     0.01117
     0.01067
      0.0087
      0.0072
      0.0076
      0.0083
      0.0077
      0.0071
      0.0081
     0.01093
     0.01465
     0.01560
     0.01145
      0.0072
      0.0059
      0.0053
      0.0048
      0.0042
      0.0036
      0.0029
      0.0021
      0.0014
   0.7414E-3
   0.3473E-3
   0.1490E-3
   0.1492E-3
   0.3480E-3
   0.7427E-3
     0.01093
     0.01019
      0.0082
      0.0079
      0.0084
     0.01015
     0.01018
      0.0088
     0.01007
     0.01473
     0.01806
     0.01770
     0.01838
     0.02308
     0.03258
     0.05020
     0.05877
     0.04212
     0.03630
     0.04650
     0.06338
     0.07976
     0.08580
     0.07977
     0.06339
     0.04651
     0.03630
     0.04211
     0.05877
     0.05021
     0.03258
     0.02307
     0.01838
     0.01770
     0.01806
     0.01473
     0.01007
      0.0088
     0.01018
     0.01015
      0.0084
      0.0079
      0.0082
     0.01019
     0.01263
     0.01244
      0.0097
      0.0075
      0.0065
      0.0059
      0.0054
      0.0048
      0.0042
      0.0034
      0.0023
      0.0014
   0.7401E-3
   0.4141E-3
   0.3247E-3
   0.4146E-3
   0.7413E-3
     0.01019
      0.0082
      0.0075
      0.0087
     0.01004
     0.01270
     0.01478
     0.01193
     0.01117
     0.01553
     0.02213
     0.02623
     0.02782
     0.03048
     0.03604
     0.04568
     0.06337
     0.06640
     0.06158
     0.06941
     0.07931
     0.09114
     0.09964
     0.09964
     0.09115
     0.07932
     0.06943
     0.06158
     0.06640
     0.06337
     0.04568
     0.03604
     0.03048
     0.02781
     0.02623
     0.02213
     0.01553
     0.01116
     0.01193
     0.01479
     0.01271
     0.01004
      0.0087
      0.0075
      0.0082
      0.0094
      0.0092
      0.0082
      0.0072
      0.0066
      0.0063
      0.0059
      0.0054
      0.0046
      0.0035
      0.0023
      0.0014
   0.7603E-3
   0.4996E-3
   0.4998E-3
   0.7611E-3
      0.0082
      0.0060
      0.0062
      0.0090
     0.01270
     0.01753
     0.02161
     0.01693
     0.01233
     0.01508
     0.02288
     0.03137
     0.03854
     0.04519
     0.05488
     0.06761
     0.07704
     0.08660
     0.09831
    0.107178
    0.110399
    0.114290
    0.118692
    0.120095
    0.118695
    0.114296
    0.110411
    0.107196
     0.09832
     0.08661
     0.07704
     0.06762
     0.05488
     0.04519
     0.03854
     0.03137
     0.02288
     0.01508
     0.01233
     0.01694
     0.02163
     0.01754
     0.01270
      0.0090
      0.0062
      0.0060
      0.0066
      0.0068
      0.0066
      0.0064
      0.0064
      0.0064
      0.0062
      0.0056
      0.0046
      0.0034
      0.0021
      0.0012
   0.7219E-3
   0.5698E-3
   0.7223E-3
      0.0060
      0.0043
      0.0048
      0.0081
     0.01507
     0.02397
     0.02891
     0.02166
     0.01295
     0.01361
     0.02167
     0.03290
     0.04446
     0.05704
     0.07243
     0.09667
    0.130402
    0.157300
    0.165571
    0.162112
    0.157240
    0.156296
    0.157705
    0.158410
    0.158411
    0.157706
    0.156301
    0.157252
    0.162139
    0.165606
    0.157327
    0.130419
     0.09668
     0.07244
     0.05705
     0.04446
     0.03290
     0.02167
     0.01361
     0.01295
     0.02168
     0.02894
     0.02399
     0.01508
      0.0081
      0.0048
      0.0043
      0.0047
      0.0052
      0.0055
      0.0059
      0.0062
      0.0064
      0.0062
      0.0054
      0.0042
      0.0029
      0.0018
      0.0011
   0.6846E-3
   0.6847E-3
      0.0043
      0.0031
      0.0034
      0.0054
     0.01092
     0.01983
     0.02542
     0.01981
     0.01139
     0.01149
     0.01928
     0.03166
     0.04533
     0.06092
     0.08072
    0.106556
    0.143583
    0.188138
    0.214499
    0.214183
    0.211585
    0.214316
    0.217024
    0.218400
    0.218827
    0.218400
    0.217025
    0.214317
    0.211593
    0.214204
    0.214528
    0.188162
    0.143596
    0.106562
     0.08072
     0.06093
     0.04533
     0.03166
     0.01928
     0.01149
     0.01139
     0.01982
     0.02545
     0.01985
     0.01093
      0.0054
      0.0034
      0.0031
      0.0036
      0.0043
      0.0050
      0.0057
      0.0062
      0.0064
      0.0059
      0.0048
      0.0036
      0.0024
      0.0015
   0.8997E-3
   0.6795E-3
      0.0031
      0.0025
      0.0023
      0.0030
      0.0056
     0.01001
     0.01324
     0.01150
      0.0080
      0.0096
     0.01752
     0.03006
     0.04491
     0.06109
     0.08114
    0.107773
    0.141364
    0.181881
    0.221447
    0.247699
    0.266557
    0.282908
    0.292415
    0.295882
    0.296504
    0.296504
    0.295884
    0.292417
    0.282908
    0.266556
    0.247701
    0.221451
    0.181883
    0.141362
    0.107771
     0.08114
     0.06110
     0.04492
     0.03006
     0.01752
      0.0096
      0.0080
     0.01151
     0.01325
     0.01002
      0.0056
      0.0030
      0.0023
      0.0025
      0.0031
      0.0040
      0.0050
      0.0059
      0.0064
      0.0063
      0.0054
      0.0042
      0.0030
      0.0020
      0.0012
   0.8029E-3
      0.0025
      0.0023
      0.0017
      0.0016
      0.0024
      0.0042
      0.0057
      0.0057
      0.0060
      0.0096
     0.01811
     0.03035
     0.04475
     0.06153
     0.08083
    0.106103
    0.141011
    0.184484
    0.233739
    0.283030
    0.327116
    0.360389
    0.377610
    0.382635
    0.382042
    0.381083
    0.382046
    0.382642
    0.377618
    0.360394
    0.327113
    0.283020
    0.233725
    0.184467
    0.140996
    0.106092
     0.08082
     0.06153
     0.04476
     0.03036
     0.01811
      0.0096
      0.0060
      0.0057
      0.0057
      0.0042
      0.0024
      0.0016
      0.0017
      0.0023
      0.0031
      0.0043
      0.0055
      0.0064
      0.0066
      0.0059
      0.0048
      0.0036
      0.0025
      0.0016
      0.0011
      0.0023
      0.0025
      0.0017
      0.0011
   0.9966E-3
      0.0016
      0.0026
      0.0037
      0.0066
     0.01310
     0.02222
     0.03342
     0.04578
     0.06094
     0.08003
    0.103867
    0.138016
    0.186891
    0.249434
    0.319566
    0.388222
    0.441921
    0.468142
    0.471485
    0.466457
    0.462200
    0.462202
    0.466465
    0.471501
    0.468161
    0.441933
    0.388219
    0.319548
    0.249405
    0.186858
    0.137986
    0.103847
     0.08002
     0.06095
     0.04579
     0.03344
     0.02224
     0.01310
      0.0066
      0.0037
      0.0026
      0.0016
   0.9964E-3
      0.0011
      0.0017
      0.0025
      0.0036
      0.0052
      0.0066
      0.0072
      0.0065
      0.0053
      0.0043
      0.0032
      0.0022
      0.0014
      0.0025
      0.0031
      0.0022
      0.0016
   0.9877E-3
   0.8561E-3
      0.0015
      0.0031
      0.0075
     0.01792
     0.02886
     0.03790
     0.04890
     0.06320
     0.08081
    0.102673
    0.133685
    0.182051
    0.253878
    0.343730
    0.436602
    0.514247
    0.555123
    0.557533
    0.544302
    0.534005
    0.530473
    0.534004
    0.544307
    0.557554
    0.555152
    0.514262
    0.436590
    0.343696
    0.253828
    0.181997
    0.133639
    0.102646
     0.08080
     0.06321
     0.04892
     0.03793
     0.02887
     0.01792
      0.0075
      0.0031
      0.0015
   0.8560E-3
   0.9881E-3
      0.0016
      0.0022
      0.0031
      0.0047
      0.0068
      0.0082
      0.0075
      0.0060
      0.0050
      0.0039
      0.0028
      0.0020
      0.0031
      0.0043
      0.0033
      0.0030
      0.0024
      0.0015
      0.0015
      0.0029
      0.0059
     0.01614
     0.03112
     0.04052
     0.05012
     0.06592
     0.08569
    0.106331
    0.132286
    0.173796
    0.243704
    0.343470
    0.457358
    0.560849
    0.623219
    0.630228
    0.611058
    0.596959
    0.593356
    0.593344
    0.596934
    0.611046
    0.630244
    0.623243
    0.560846
    0.457320
    0.343405
    0.243624
    0.173717
    0.132228
    0.106305
     0.08569
     0.06594
     0.05014
     0.04054
     0.03113
     0.01615
      0.0059
      0.0029
      0.0015
      0.0015
      0.0024
      0.0030
      0.0033
      0.0043
      0.0066
      0.0092
      0.0097
      0.0072
      0.0057
      0.0047
      0.0036
      0.0026
      0.0043
      0.0060
      0.0048
      0.0054
      0.0056
      0.0042
      0.0025
      0.0031
      0.0059
     0.01125
     0.02374
     0.03573
     0.04452
     0.05864
     0.08323
    0.112053
    0.136318
    0.166259
    0.223397
    0.320532
    0.446453
    0.573851
    0.659805
    0.675409
    0.655068
    0.646364
    0.662804
    0.675944
    0.662746
    0.646290
    0.655021
    0.675401
    0.659801
    0.573807
    0.446371
    0.320427
    0.223281
    0.166156
    0.136252
    0.112032
     0.08324
     0.05866
     0.04453
     0.03573
     0.02374
     0.01125
      0.0059
      0.0031
      0.0025
      0.0042
      0.0056
      0.0054
      0.0048
      0.0060
      0.0094
     0.01243
     0.01145
      0.0076
      0.0054
      0.0043
      0.0034
      0.0060
      0.0082
      0.0062
      0.0081
     0.01090
      0.0100
      0.0056
      0.0036
      0.0075
     0.01615
     0.02375
     0.02985
     0.03394
     0.04142
     0.06546
    0.112726
    0.154637
    0.171950
    0.202836
    0.281238
    0.407726
    0.551551
    0.656540
    0.681368
    0.661631
    0.665933
    0.732057
    0.815162
    0.815098
    0.731915
    0.665794
    0.661538
    0.681316
    0.656482
    0.551453
    0.407599
    0.281089
    0.202683
    0.171825
    0.154576
    0.112715
     0.06546
     0.04141
     0.03393
     0.02983
     0.02374
     0.01615
      0.0075
      0.0036
      0.0056
      0.0100
     0.01090
      0.0081
      0.0062
      0.0082
     0.01261
     0.01559
     0.01366
      0.0090
      0.0060
      0.0045
      0.0082
     0.01016
      0.0075
      0.0090
     0.01505
     0.01981
     0.01321
      0.0057
      0.0066
     0.01791
     0.03113
     0.03573
     0.03395
     0.03044
     0.03887
     0.08201
    0.163999
    0.207969
    0.205124
    0.241309
    0.342199
    0.483014
    0.601907
    0.642353
    0.626672
    0.633115
    0.738076
    0.912706
    0.998894
    0.912526
    0.737852
    0.632925
    0.626523
    0.642223
    0.601766
    0.482850
    0.342017
    0.241114
    0.204932
    0.207843
    0.163971
     0.08200
     0.03885
     0.03042
     0.03392
     0.03571
     0.03112
     0.01791
      0.0066
      0.0057
     0.01322
     0.01983
     0.01506
      0.0090
      0.0075
     0.01016
     0.01463
     0.01681
     0.01443
      0.0099
      0.0065
     0.01016
     0.01090
      0.0082
      0.0087
     0.01267
     0.02396
     0.02542
     0.01147
      0.0060
     0.01307
     0.02884
     0.04051
     0.04451
     0.04141
     0.03886
     0.04498
     0.08736
    0.189440
    0.232308
    0.223921
    0.276798
    0.386762
    0.503803
    0.566113
    0.565826
    0.559643
    0.639676
    0.812071
    0.923503
    0.923388
    0.811827
    0.639429
    0.559412
    0.565599
    0.565881
    0.503568
    0.386530
    0.276571
    0.223686
    0.232083
    0.189323
     0.08731
     0.04494
     0.03883
     0.04139
     0.04450
     0.04051
     0.02884
     0.01307
      0.0060
     0.01148
     0.02544
     0.02398
     0.01268
      0.0087
      0.0082
     0.01090
     0.01433
     0.01491
     0.01245
      0.0086
     0.01090
     0.01061
      0.0080
      0.0079
      0.0100
     0.01751
     0.02891
     0.01979
      0.0080
      0.0096
     0.02218
     0.03787
     0.05008
     0.05860
     0.06541
     0.08196
     0.08732
    0.112672
    0.209807
    0.229302
    0.235113
    0.303585
    0.400015
    0.474523
    0.496294
    0.486619
    0.510936
    0.614260
    0.681213
    0.680363
    0.681061
    0.614035
    0.510681
    0.486331
    0.495978
    0.474201
    0.399712
    0.303314
    0.234865
    0.229040
    0.209573
    0.112562
     0.08730
     0.08197
     0.06543
     0.05862
     0.05010
     0.03788
     0.02219
      0.0096
      0.0080
     0.01981
     0.02893
     0.01752
     0.01001
      0.0079
      0.0080
     0.01062
     0.01236
     0.01187
      0.0094
     0.01061
     0.01006
      0.0083
      0.0071
      0.0083
     0.01267
     0.02160
     0.02165
     0.01136
      0.0095
     0.01805
     0.03336
     0.04883
     0.06584
     0.08314
    0.112612
    0.163858
    0.189294
    0.209717
    0.230267
    0.220317
    0.251487
    0.320480
    0.391620
    0.430028
    0.431033
    0.422907
    0.456135
    0.501471
    0.495970
    0.495916
    0.501323
    0.455914
    0.422612
    0.430678
    0.429646
    0.391251
    0.320157
    0.251220
    0.220082
    0.230039
    0.209593
    0.189338
    0.163952
    0.112680
     0.08319
     0.06588
     0.04886
     0.03338
     0.01807
      0.0095
     0.01137
     0.02166
     0.02161
     0.01268
      0.0083
      0.0071
      0.0083
     0.01006
     0.01055
      0.0094
     0.01006
      0.0099
      0.0090
      0.0077
      0.0077
     0.01011
     0.01475
     0.01691
     0.01292
     0.01143
     0.01746
     0.03028
     0.04570
     0.06310
     0.08557
    0.111904
    0.154451
    0.207745
    0.232096
    0.229164
    0.220250
    0.234506
    0.279415
    0.336746
    0.379654
    0.392179
    0.379318
    0.365487
    0.376527
    0.383640
    0.379077
    0.383558
    0.376359
    0.365222
    0.378968
    0.391781
    0.379255
    0.336389
    0.279127
    0.234287
    0.220073
    0.229036
    0.232094
    0.207839
    0.154547
    0.111985
     0.08564
     0.06315
     0.04574
     0.03031
     0.01748
     0.01145
     0.01292
     0.01692
     0.01476
     0.01012
      0.0077
      0.0077
      0.0090
      0.0099
      0.0096
      0.0099
      0.0100
      0.0098
      0.0088
      0.0079
      0.0082
     0.01013
     0.01189
     0.01229
     0.01356
     0.01921
     0.02998
     0.04466
     0.06083
     0.08067
    0.106166
    0.136121
    0.171723
    0.204884
    0.223703
    0.234931
    0.251349
    0.279338
    0.318163
    0.352333
    0.368198
    0.359300
    0.330016
    0.299537
    0.282180
    0.273545
    0.273507
    0.282058
    0.299314
    0.329701
    0.358925
    0.367809
    0.351977
    0.317876
    0.279137
    0.251220
    0.234849
    0.223670
    0.204919
    0.171803
    0.136213
    0.106252
     0.08074
     0.06089
     0.04471
     0.03002
     0.01923
     0.01358
     0.01229
     0.01190
     0.01014
      0.0082
      0.0079
      0.0088
      0.0098
      0.0100
      0.0100
     0.01006
     0.01027
      0.0096
      0.0084
      0.0076
      0.0076
      0.0088
     0.01112
     0.01503
     0.02161
     0.03158
     0.04482
     0.06141
     0.07989
    0.102508
    0.132088
    0.166031
    0.202587
    0.241048
    0.276536
    0.303333
    0.320263
    0.336592
    0.352258
    0.359378
    0.351094
    0.320620
    0.275049
    0.226012
    0.186479
    0.171134
    0.186394
    0.225832
    0.274783
    0.320292
    0.350746
    0.359057
    0.352004
    0.336429
    0.320195
    0.303336
    0.276577
    0.241113
    0.202676
    0.166136
    0.132192
    0.102600
     0.07997
     0.06148
     0.04487
     0.03162
     0.02164
     0.01505
     0.01113
      0.0088
      0.0076
      0.0076
      0.0084
      0.0096
     0.01026
     0.01006
      0.0097
     0.01002
      0.0097
      0.0088
      0.0076
      0.0068
      0.0071
     0.01002
     0.01548
     0.02283
     0.03283
     0.04525
     0.06099
     0.08070
    0.103706
    0.133493
    0.173572
    0.223142
    0.280956
    0.341893
    0.386439
    0.399698
    0.391341
    0.379444
    0.368070
    0.351041
    0.319641
    0.272444
    0.213492
    0.151157
    0.107359
    0.107316
    0.151027
    0.213283
    0.272180
    0.319357
    0.350780
    0.367873
    0.379341
    0.391348
    0.399806
    0.386608
    0.342075
    0.281129
    0.223300
    0.173713
    0.133614
    0.103809
     0.08078
     0.06106
     0.04530
     0.03287
     0.02285
     0.01550
     0.01003
      0.0071
      0.0068
      0.0076
      0.0088
      0.0097
      0.0097
      0.0088
      0.0089
      0.0088
      0.0082
      0.0074
      0.0066
      0.0064
      0.0086
     0.01469
     0.02208
     0.03131
     0.04438
     0.06082
     0.08102
    0.105950
    0.137832
    0.181836
    0.243453
    0.320241
    0.407400
    0.482662
    0.503440
    0.474172
    0.429723
    0.391947
    0.359151
    0.320544
    0.272420
    0.213494
    0.146484
     0.08350
     0.05357
     0.08342
    0.146341
    0.213306
    0.272216
    0.320363
    0.359027
    0.391911
    0.429801
    0.474375
    0.503746
    0.483010
    0.407722
    0.320511
    0.243670
    0.182008
    0.137972
    0.106064
     0.08111
     0.06089
     0.04443
     0.03135
     0.02210
     0.01470
      0.0086
      0.0064
      0.0066
      0.0074
      0.0082
      0.0088
      0.0074
      0.0072
      0.0073
      0.0070
      0.0063
      0.0058
      0.0058
      0.0065
     0.01064
     0.01801
     0.02617
     0.03847
     0.05695
     0.08060
    0.107629
    0.140837
    0.186686
    0.253636
    0.343181
    0.446116
    0.551188
    0.601541
    0.565748
    0.495948
    0.430737
    0.379095
    0.329874
    0.274977
    0.213464
    0.146475
     0.08217
     0.02822
     0.02820
     0.08210
    0.146377
    0.213358
    0.274893
    0.329840
    0.379136
    0.430877
    0.496210
    0.566141
    0.602030
    0.551681
    0.446538
    0.343517
    0.253891
    0.186882
    0.140992
    0.107751
     0.08070
     0.05702
     0.03852
     0.02620
     0.01803
     0.01065
      0.0065
      0.0058
      0.0058
      0.0063
      0.0074
      0.0058
      0.0051
      0.0057
      0.0061
      0.0054
      0.0044
      0.0045
      0.0057
      0.0071
     0.01113
     0.01765
     0.02775
     0.04511
     0.07233
    0.106423
    0.141203
    0.184293
    0.249209
    0.343462
    0.457038
    0.573493
    0.656185
    0.642015
    0.565489
    0.486294
    0.422623
    0.365277
    0.299413
    0.225952
    0.151131
     0.08349
     0.02821
   0.1384E-5
     0.02822
     0.08348
    0.151131
    0.225976
    0.299487
    0.365419
    0.422837
    0.486596
    0.565905
    0.642555
    0.656798
    0.574064
    0.457511
    0.343825
    0.249480
    0.184500
    0.141366
    0.106549
     0.07241
     0.04516
     0.02779
     0.01767
     0.01115
      0.0071
      0.0057
      0.0045
      0.0044
      0.0058
      0.0044
      0.0033
      0.0047
      0.0070
      0.0073
      0.0048
      0.0032
      0.0051
      0.0096
     0.01200
     0.01358
     0.01833
     0.03041
     0.05479
     0.09655
    0.143438
    0.181710
    0.233537
    0.319327
    0.436317
    0.560525
    0.659479
    0.681067
    0.626371
    0.559315
    0.510587
    0.455821
    0.376315
    0.282076
    0.186439
    0.107342
     0.05356
     0.02820
     0.02823
     0.05363
    0.107431
    0.186564
    0.282265
    0.376582
    0.456157
    0.510967
    0.559747
    0.626894
    0.681693
    0.660138
    0.561117
    0.436791
    0.319682
    0.233806
    0.181926
    0.143612
     0.09667
     0.05486
     0.03045
     0.01835
     0.01360
     0.01202
      0.0096
      0.0051
      0.0032
      0.0044
      0.0039
      0.0026
      0.0040
      0.0083
     0.01324
     0.01058
      0.0047
      0.0037
      0.0093
     0.01633
     0.01836
     0.01911
     0.02302
     0.03598
     0.06753
    0.130282
    0.187996
    0.221278
    0.282825
    0.387979
    0.513972
    0.622937
    0.675148
    0.661376
    0.632818
    0.639287
    0.613807
    0.501125
    0.383463
    0.273488
    0.171137
    0.107342
     0.08347
     0.08216
     0.08354
    0.107475
    0.171327
    0.273760
    0.383823
    0.501578
    0.614336
    0.639816
    0.633349
    0.661968
    0.675806
    0.623588
    0.514533
    0.388417
    0.283156
    0.221548
    0.188230
    0.130443
     0.06761
     0.03603
     0.02305
     0.01914
     0.01838
     0.01634
      0.0093
      0.0037
      0.0039
      0.0040
      0.0029
      0.0039
      0.0077
     0.01719
     0.02199
     0.01181
      0.0046
      0.0061
     0.01397
     0.02044
     0.02399
     0.02665
     0.03253
     0.04562
     0.07696
    0.157198
    0.214377
    0.247541
    0.326921
    0.441695
    0.554888
    0.630007
    0.654861
    0.665705
    0.737751
    0.811600
    0.680801
    0.495779
    0.379032
    0.273551
    0.186489
    0.151156
    0.146495
    0.146540
    0.151286
    0.186699
    0.273859
    0.379440
    0.496285
    0.681452
    0.812329
    0.738400
    0.666309
    0.655495
    0.630661
    0.555494
    0.442197
    0.327307
    0.247848
    0.214654
    0.157400
     0.07706
     0.04568
     0.03257
     0.02668
     0.02402
     0.02047
     0.01398
      0.0061
      0.0040
      0.0036
      0.0030
      0.0044
      0.0078
     0.01687
     0.02922
     0.02273
      0.0085
      0.0047
      0.0091
     0.01680
     0.02317
     0.02895
     0.03503
     0.05016
     0.06332
     0.08653
    0.165493
    0.214080
    0.266418
    0.360221
    0.467958
    0.557355
    0.610899
    0.646216
    0.731879
    0.912438
    0.923252
    0.680296
    0.495974
    0.383685
    0.282240
    0.226068
    0.213564
    0.213614
    0.213667
    0.226269
    0.282546