
.Version 6.12.3 of ABINIT 
.(sequential version, prepared for a x86_64_linux_gnu4.7 computer) 

.Copyright (C) 1998-2012 ABINIT group . 
 ABINIT comes with ABSOLUTELY NO WARRANTY.
 It is free software, and you are welcome to redistribute it
 under certain conditions (GNU General Public License,
 see ~abinit/COPYING or http://www.gnu.org/copyleft/gpl.txt).

 ABINIT is a project of the Universite Catholique de Louvain,
 Corning Inc. and other collaborators, see ~abinit/doc/developers/contributors.txt .
 Please read ~abinit/doc/users/acknowledgments.html for suggested
 acknowledgments of the ABINIT effort.
 For more information, see http://www.abinit.org .

.Starting date : Wed 27 Mar 2013.
- ( at 18h15 )
  
- input  file    -> Fe_noSO.in
- output file    -> Fe_e50_k8_noSO.out
- root for input  files -> Fe_e50_k8_noSO.i
- root for output files -> Fe_e50_k8_noSO.o


 DATASET    1 : space group Im -3 m (#229); Bravais cI (body-center cubic)
================================================================================
 Values of the parameters that define the memory need for DATASET  1.
   intxc =         0  ionmov =         0    iscf =         7 xclevel =         1
  lmnmax =         5   lnmax =         5   mband =        10  mffmem =         1
P  mgfft =        30   mkmem =        26 mpssoang=         3     mpw =      1365
  mqgrid =      3001   natom =         1    nfft =     27000    nkpt =        26
  nloalg =         4  nspden =         2 nspinor =         1  nsppol =         2
    nsym =        48  n1xccc =         0  ntypat =         1  occopt =         7
================================================================================
P This job should need less than                      24.471 Mbytes of memory.
  Rough estimation (10% accuracy) of disk space for files :
  WF disk file :     10.833 Mbytes ; DEN or POT disk file :      0.414 Mbytes.
================================================================================


 DATASET    2 : space group Im -3 m (#229); Bravais cI (body-center cubic)
================================================================================
 Values of the parameters that define the memory need for DATASET  2.
   intxc =         0  ionmov =         0    iscf =        -2 xclevel =         1
  lmnmax =         5   lnmax =         5   mband =        20  mffmem =         1
P  mgfft =        30   mkmem =        26 mpssoang=         3     mpw =      1365
  mqgrid =      3001   natom =         1    nfft =     27000    nkpt =        26
  nloalg =         4  nspden =         2 nspinor =         1  nsppol =         2
    nsym =        48  n1xccc =         0  ntypat =         1  occopt =         7
================================================================================
P This job should need less than                      28.785 Mbytes of memory.
  Rough estimation (10% accuracy) of disk space for files :
  WF disk file :     21.663 Mbytes ; DEN or POT disk file :      0.414 Mbytes.
================================================================================

--------------------------------------------------------------------------------
------------- Echo of variables that govern the present computation ------------
--------------------------------------------------------------------------------
-
- outvars: echo of selected default values                                      
-   accesswff0 =  0 , fftalg0 =112 , wfoptalg0 =  0
-
- outvars: echo of global parameters not present in the input file              
-   nproc =    1
-
 -outvars: echo values of preprocessed input variables --------
            acell      5.4200000000E+00  5.4200000000E+00  5.4200000000E+00 Bohr
              amu      5.58470000E+01
             ecut      5.00000000E+01 Hartree
           enunit           1
           getden1          0
           getden2          1
             iscf1          7
             iscf2         -2
           jdtset        1    2
              kpt      6.25000000E-02  6.25000000E-02  6.25000000E-02
                       1.87500000E-01  6.25000000E-02  6.25000000E-02
                       3.12500000E-01  6.25000000E-02  6.25000000E-02
                       4.37500000E-01  6.25000000E-02  6.25000000E-02
                      -6.25000000E-02  6.25000000E-02  6.25000000E-02
                       1.87500000E-01  1.87500000E-01  6.25000000E-02
                       3.12500000E-01  1.87500000E-01  6.25000000E-02
                      -1.87500000E-01  1.87500000E-01  6.25000000E-02
                       3.12500000E-01  3.12500000E-01  6.25000000E-02
                      -3.12500000E-01  3.12500000E-01  6.25000000E-02
                      -1.87500000E-01  3.12500000E-01  6.25000000E-02
                      -4.37500000E-01  4.37500000E-01  6.25000000E-02
                      -3.12500000E-01  4.37500000E-01  6.25000000E-02
                      -4.37500000E-01 -4.37500000E-01  6.25000000E-02
                      -3.12500000E-01 -4.37500000E-01  6.25000000E-02
                       1.87500000E-01  1.87500000E-01  1.87500000E-01
                       3.12500000E-01  1.87500000E-01  1.87500000E-01
                      -1.87500000E-01  1.87500000E-01  1.87500000E-01
                      -3.12500000E-01  3.12500000E-01  1.87500000E-01
                      -4.37500000E-01  4.37500000E-01  1.87500000E-01
                      -3.12500000E-01  4.37500000E-01  1.87500000E-01
                      -4.37500000E-01 -4.37500000E-01  1.87500000E-01
                      -3.12500000E-01  3.12500000E-01  3.12500000E-01
                      -4.37500000E-01  4.37500000E-01  3.12500000E-01
                      -4.37500000E-01 -4.37500000E-01  3.12500000E-01
                      -4.37500000E-01  4.37500000E-01  4.37500000E-01
          kptrlen      3.75508615E+01
           kptopt           4
         kptrlatt      8  0  0   0  8  0   0  0  8
          kssform1          1
          kssform2          3
P           mkmem          26
            natom           1
            nband1         10
            nband2         20
           nbdbuf1          0
           nbdbuf2         10
           ndtset           2
            ngfft          30      30      30
             nkpt          26
           nspden           2
           nsppol           2
            nstep1        100
            nstep2        300
             nsym          48
           ntypat           1
              occ      1.000000  1.000000  1.000000  1.000000  1.000000  1.000000
                       1.000000  1.000000  0.000000  0.000000
                       1.000000  1.000000  1.000000  1.000000  1.000000  1.000000
                       1.000000  1.000000  0.000000  0.000000
                       1.000000  1.000000  1.000000  1.000000  1.000000  1.000000
                       1.000000  1.000000  0.000000  0.000000
                       1.000000  1.000000  1.000000  1.000000  1.000000  1.000000
                       1.000000  1.000000  0.000000  0.000000
                       1.000000  1.000000  1.000000  1.000000  1.000000  1.000000
                       1.000000  1.000000  0.000000  0.000000
                       1.000000  1.000000  1.000000  1.000000  1.000000  1.000000
                       1.000000  1.000000  0.000000  0.000000
                       1.000000  1.000000  1.000000  1.000000  1.000000  1.000000
                       1.000000  1.000000  0.000000  0.000000
                       1.000000  1.000000  1.000000  1.000000  1.000000  1.000000
                       1.000000  1.000000  0.000000  0.000000
                       1.000000  1.000000  1.000000  1.000000  1.000000  1.000000
                       1.000000  1.000000  0.000000  0.000000
                       1.000000  1.000000  1.000000  1.000000  1.000000  1.000000
                       1.000000  1.000000  0.000000  0.000000
                       1.000000  1.000000  1.000000  1.000000  1.000000  1.000000
                       1.000000  1.000000  0.000000  0.000000
                       1.000000  1.000000  1.000000  1.000000  1.000000  1.000000
                       1.000000  1.000000  0.000000  0.000000
                       1.000000  1.000000  1.000000  1.000000  1.000000  1.000000
                       1.000000  1.000000  0.000000  0.000000
                       1.000000  1.000000  1.000000  1.000000  1.000000  1.000000
                       1.000000  1.000000  0.000000  0.000000
                       1.000000  1.000000  1.000000  1.000000  1.000000  1.000000
                       1.000000  1.000000  0.000000  0.000000
                       1.000000  1.000000  1.000000  1.000000  1.000000  1.000000
                       1.000000  1.000000  0.000000  0.000000
                       1.000000  1.000000  1.000000  1.000000  1.000000  1.000000
                       1.000000  1.000000  0.000000  0.000000
                       1.000000  1.000000  1.000000  1.000000  1.000000  1.000000
                       1.000000  1.000000  0.000000  0.000000
                       1.000000  1.000000  1.000000  1.000000  1.000000  1.000000
                       1.000000  1.000000  0.000000  0.000000
                       1.000000  1.000000  1.000000  1.000000  1.000000  1.000000
                       1.000000  1.000000  0.000000  0.000000
                       1.000000  1.000000  1.000000  1.000000  1.000000  1.000000
                       1.000000  1.000000  0.000000  0.000000
                       1.000000  1.000000  1.000000  1.000000  1.000000  1.000000
                       1.000000  1.000000  0.000000  0.000000
                       1.000000  1.000000  1.000000  1.000000  1.000000  1.000000
                       1.000000  1.000000  0.000000  0.000000
                       1.000000  1.000000  1.000000  1.000000  1.000000  1.000000
                       1.000000  1.000000  0.000000  0.000000
                       1.000000  1.000000  1.000000  1.000000  1.000000  1.000000
                       1.000000  1.000000  0.000000  0.000000
                       1.000000  1.000000  1.000000  1.000000  1.000000  1.000000
                       1.000000  1.000000  0.000000  0.000000
                       1.000000  1.000000  1.000000  1.000000  1.000000  1.000000
                       1.000000  1.000000  0.000000  0.000000
                       1.000000  1.000000  1.000000  1.000000  1.000000  1.000000
                       1.000000  1.000000  0.000000  0.000000
                       1.000000  1.000000  1.000000  1.000000  1.000000  1.000000
                       1.000000  1.000000  0.000000  0.000000
                       1.000000  1.000000  1.000000  1.000000  1.000000  1.000000
                       1.000000  1.000000  0.000000  0.000000
                       1.000000  1.000000  1.000000  1.000000  1.000000  1.000000
                       1.000000  1.000000  0.000000  0.000000
                       1.000000  1.000000  1.000000  1.000000  1.000000  1.000000
                       1.000000  1.000000  0.000000  0.000000
                       1.000000  1.000000  1.000000  1.000000  1.000000  1.000000
                       1.000000  1.000000  0.000000  0.000000
                       1.000000  1.000000  1.000000  1.000000  1.000000  1.000000
                       1.000000  1.000000  0.000000  0.000000
                       1.000000  1.000000  1.000000  1.000000  1.000000  1.000000
                       1.000000  1.000000  0.000000  0.000000
                       1.000000  1.000000  1.000000  1.000000  1.000000  1.000000
                       1.000000  1.000000  0.000000  0.000000
                       1.000000  1.000000  1.000000  1.000000  1.000000  1.000000
                       1.000000  1.000000  0.000000  0.000000
                       1.000000  1.000000  1.000000  1.000000  1.000000  1.000000
                       1.000000  1.000000  0.000000  0.000000
                       1.000000  1.000000  1.000000  1.000000  1.000000  1.000000
                       1.000000  1.000000  0.000000  0.000000
                       1.000000  1.000000  1.000000  1.000000  1.000000  1.000000
                       1.000000  1.000000  0.000000  0.000000
                       1.000000  1.000000  1.000000  1.000000  1.000000  1.000000
                       1.000000  1.000000  0.000000  0.000000
                       1.000000  1.000000  1.000000  1.000000  1.000000  1.000000
                       1.000000  1.000000  0.000000  0.000000
                       1.000000  1.000000  1.000000  1.000000  1.000000  1.000000
                       1.000000  1.000000  0.000000  0.000000
                       1.000000  1.000000  1.000000  1.000000  1.000000  1.000000
                       1.000000  1.000000  0.000000  0.000000
                       1.000000  1.000000  1.000000  1.000000  1.000000  1.000000
                       1.000000  1.000000  0.000000  0.000000
                       1.000000  1.000000  1.000000  1.000000  1.000000  1.000000
                       1.000000  1.000000  0.000000  0.000000
                       1.000000  1.000000  1.000000  1.000000  1.000000  1.000000
                       1.000000  1.000000  0.000000  0.000000
                       1.000000  1.000000  1.000000  1.000000  1.000000  1.000000
                       1.000000  1.000000  0.000000  0.000000
                       1.000000  1.000000  1.000000  1.000000  1.000000  1.000000
                       1.000000  1.000000  0.000000  0.000000
                       1.000000  1.000000  1.000000  1.000000  1.000000  1.000000
                       1.000000  1.000000  0.000000  0.000000
                       1.000000  1.000000  1.000000  1.000000  1.000000  1.000000
                       1.000000  1.000000  0.000000  0.000000
                       1.000000  1.000000  1.000000  1.000000  1.000000  1.000000
                       1.000000  1.000000  0.000000  0.000000
           occopt           7
            rprim     -5.0000000000E-01  5.0000000000E-01  5.0000000000E-01
                       5.0000000000E-01 -5.0000000000E-01  5.0000000000E-01
                       5.0000000000E-01  5.0000000000E-01 -5.0000000000E-01
           shiftk      5.00000000E-01  5.00000000E-01  5.00000000E-01
           so_psp           0
          spgroup         229
           spinat      0.0000000000E+00  0.0000000000E+00  5.0000000000E+00
        symmorphi1          1
        symmorphi2          0
           symrel      1  0  0   0  1  0   0  0  1      -1  0  0   0 -1  0   0  0 -1
                      -1 -1 -1   0  0  1   0  1  0       1  1  1   0  0 -1   0 -1  0
                       0  1  0   1  0  0  -1 -1 -1       0 -1  0  -1  0  0   1  1  1
                       0  0  1  -1 -1 -1   1  0  0       0  0 -1   1  1  1  -1  0  0
                       0  1  0   1  0  0   0  0  1       0 -1  0  -1  0  0   0  0 -1
                      -1 -1 -1   0  0  1   1  0  0       1  1  1   0  0 -1  -1  0  0
                       1  0  0   0  1  0  -1 -1 -1      -1  0  0   0 -1  0   1  1  1
                       0  0  1  -1 -1 -1   0  1  0       0  0 -1   1  1  1   0 -1  0
                      -1 -1 -1   1  0  0   0  0  1       1  1  1  -1  0  0   0  0 -1
                       0  1  0   0  0  1   1  0  0       0 -1  0   0  0 -1  -1  0  0
                       1  0  0  -1 -1 -1   0  1  0      -1  0  0   1  1  1   0 -1  0
                       0  0  1   0  1  0  -1 -1 -1       0  0 -1   0 -1  0   1  1  1
                       1  0  0  -1 -1 -1   0  0  1      -1  0  0   1  1  1   0  0 -1
                       0  1  0   0  0  1  -1 -1 -1       0 -1  0   0  0 -1   1  1  1
                      -1 -1 -1   1  0  0   0  1  0       1  1  1  -1  0  0   0 -1  0
                       0  0  1   0  1  0   1  0  0       0  0 -1   0 -1  0  -1  0  0
                       0  1  0  -1 -1 -1   0  0  1       0 -1  0   1  1  1   0  0 -1
                       1  0  0   0  0  1  -1 -1 -1      -1  0  0   0  0 -1   1  1  1
                      -1 -1 -1   0  1  0   1  0  0       1  1  1   0 -1  0  -1  0  0
                       0  0  1   1  0  0   0  1  0       0  0 -1  -1  0  0   0 -1  0
                      -1 -1 -1   0  1  0   0  0  1       1  1  1   0 -1  0   0  0 -1
                       1  0  0   0  0  1   0  1  0      -1  0  0   0  0 -1   0 -1  0
                       0  1  0  -1 -1 -1   1  0  0       0 -1  0   1  1  1  -1  0  0
                       0  0  1   1  0  0  -1 -1 -1       0  0 -1  -1  0  0   1  1  1
           toldfe1     1.00000000E-08 Hartree
           toldfe2     0.00000000E+00 Hartree
           tolwfr1     0.00000000E+00
           tolwfr2     1.00000000E-10
           tsmear      5.00000000E-03 Hartree
            typat      1
              wtk        0.01563    0.04688    0.04688    0.02344    0.01172    0.04688
                         0.09375    0.04688    0.01563    0.04688    0.04688    0.04688
                         0.09375    0.04688    0.04688    0.01563    0.02344    0.01172
                         0.04688    0.04688    0.04688    0.04688    0.01172    0.04688
                         0.01563    0.01172
            znucl       26.00000

================================================================================

 chkinp: Checking input parameters for consistency, jdtset=   1.

 chkinp: Checking input parameters for consistency, jdtset=   2.

================================================================================
== DATASET  1 ==================================================================

 Exchange-correlation functional for the present dataset will be:
  LDA: new Teter (4/93) with spin-polarized option - ixc=1
 Citation for XC functional:
  S. Goedecker, M. Teter, J. Huetter, PRB 54, 1703 (1996)

 Real(R)+Recip(G) space primitive vectors, cartesian coordinates (Bohr,Bohr^-1):
 R(1)= -2.7100000  2.7100000  2.7100000  G(1)=  0.0000000  0.1845018  0.1845018
 R(2)=  2.7100000 -2.7100000  2.7100000  G(2)=  0.1845018  0.0000000  0.1845018
 R(3)=  2.7100000  2.7100000 -2.7100000  G(3)=  0.1845018  0.1845018  0.0000000
 Unit cell volume ucvol=  7.9610044E+01 bohr^3
 Angles (23,13,12)=  1.09471221E+02  1.09471221E+02  1.09471221E+02 degrees

 getcut: wavevector=  0.0000  0.0000  0.0000  ngfft=  30  30  30
         ecut(hartree)=     50.000   => boxcut(ratio)=   2.00790

--- Pseudopotential description ------------------------------------------------
- pspini: atom type   1  psp file is 26fe.16.hgh
- pspatm: opening atomic psp file    26fe.16.hgh
 Hartwigsen-Goedecker-Hutter psp for Fe,  from PRB58, 3641 (1998)
- 26.00000  16.00000     10605                znucl, zion, pspdat
    3    1    2    0      2001   0.00000      pspcod,pspxc,lmax,lloc,mmax,r2well
 rloc=   0.3600000
 cc1 =   5.3925070; cc2 =  -0.0300660; cc3 =   0.0000000; cc4 =   0.0000000
 rrs =   0.2692680; h11s=  10.1937230; h22s=  -6.8349820; h33s=   0.0000000
 rrp =   0.2476860; h11p=   0.1456130; h22p=  -5.2349540; h33p=   0.0000000
                    k11p=   0.2014500; k22p=  -0.0758290; k33p=   0.0000000
 rrd =   0.2230210; h11d= -12.0269410; h22d=   0.0000000; h33d=   0.0000000
                    k11d=   0.0103220; k22d=   0.0000000; k33d=   0.0000000
-  Local part computed in reciprocal space.

 pspatm : COMMENT -
  the projectors are not normalized,
  so that the KB energies are not consistent with 
  definition in PRB44, 8503 (1991). 
  However, this does not influence the results obtained hereafter.
 pspatm: epsatm=   16.92502289
         --- l  ekb(1:nproj) -->
             0   -0.500862    0.733315
             1   -0.039838    0.006202
             2   -0.004680
 pspatm: atomic psp has been read  and splines computed

   2.70800366E+02                                ecore*ucvol(ha*bohr**3)
--------------------------------------------------------------------------------

P newkpt: treating     10 bands with npw=    1355 for ikpt=   1
P newkpt: treating     10 bands with npw=    1351 for ikpt=   2
P newkpt: treating     10 bands with npw=    1339 for ikpt=   3
P newkpt: treating     10 bands with npw=    1342 for ikpt=   4
P newkpt: treating     10 bands with npw=    1361 for ikpt=   5
P newkpt: treating     10 bands with npw=    1346 for ikpt=   6
P newkpt: treating     10 bands with npw=    1337 for ikpt=   7
P newkpt: treating     10 bands with npw=    1360 for ikpt=   8
P newkpt: treating     10 bands with npw=    1337 for ikpt=   9
P newkpt: treating     10 bands with npw=    1345 for ikpt=  10
P newkpt: treating     10 bands with npw=    1348 for ikpt=  11
P newkpt: treating     10 bands with npw=    1347 for ikpt=  12
P newkpt: treating     10 bands with npw=    1347 for ikpt=  13
P newkpt: treating     10 bands with npw=    1345 for ikpt=  14
P newkpt: treating     10 bands with npw=    1337 for ikpt=  15
P newkpt: treating     10 bands with npw=    1331 for ikpt=  16
P newkpt: treating     10 bands with npw=    1346 for ikpt=  17
P newkpt: treating     10 bands with npw=    1365 for ikpt=  18
P newkpt: treating     10 bands with npw=    1346 for ikpt=  19
P newkpt: treating     10 bands with npw=    1336 for ikpt=  20
P newkpt: treating     10 bands with npw=    1337 for ikpt=  21
P newkpt: treating     10 bands with npw=    1343 for ikpt=  22
P newkpt: treating     10 bands with npw=    1349 for ikpt=  23
P newkpt: treating     10 bands with npw=    1345 for ikpt=  24
P newkpt: treating     10 bands with npw=    1334 for ikpt=  25
P newkpt: treating     10 bands with npw=    1320 for ikpt=  26
P newkpt: treating     10 bands with npw=    1355 for ikpt=   1
P newkpt: treating     10 bands with npw=    1351 for ikpt=   2
P newkpt: treating     10 bands with npw=    1339 for ikpt=   3
P newkpt: treating     10 bands with npw=    1342 for ikpt=   4
P newkpt: treating     10 bands with npw=    1361 for ikpt=   5
P newkpt: treating     10 bands with npw=    1346 for ikpt=   6
P newkpt: treating     10 bands with npw=    1337 for ikpt=   7
P newkpt: treating     10 bands with npw=    1360 for ikpt=   8
P newkpt: treating     10 bands with npw=    1337 for ikpt=   9
P newkpt: treating     10 bands with npw=    1345 for ikpt=  10
P newkpt: treating     10 bands with npw=    1348 for ikpt=  11
P newkpt: treating     10 bands with npw=    1347 for ikpt=  12
P newkpt: treating     10 bands with npw=    1347 for ikpt=  13
P newkpt: treating     10 bands with npw=    1345 for ikpt=  14
P newkpt: treating     10 bands with npw=    1337 for ikpt=  15
P newkpt: treating     10 bands with npw=    1331 for ikpt=  16
P newkpt: treating     10 bands with npw=    1346 for ikpt=  17
P newkpt: treating     10 bands with npw=    1365 for ikpt=  18
P newkpt: treating     10 bands with npw=    1346 for ikpt=  19
P newkpt: treating     10 bands with npw=    1336 for ikpt=  20
P newkpt: treating     10 bands with npw=    1337 for ikpt=  21
P newkpt: treating     10 bands with npw=    1343 for ikpt=  22
P newkpt: treating     10 bands with npw=    1349 for ikpt=  23
P newkpt: treating     10 bands with npw=    1345 for ikpt=  24
P newkpt: treating     10 bands with npw=    1334 for ikpt=  25
P newkpt: treating     10 bands with npw=    1320 for ikpt=  26

 setup2: Arith. and geom. avg. npw (full set) are    1343.973    1343.953

================================================================================

     iter   Etot(hartree)     deltaE(h) residm    vres2    magn
 ETOT  1  -111.06611864568    -1.11E+02 3.48E+00 8.56E+04 0.953
 ETOT  2  -112.43893852586    -1.37E+00 2.72E-01 7.68E+04 0.108
 ETOT  3  -122.44494185751    -1.00E+01 7.31E-01 5.55E+02 0.948
 ETOT  4  -122.63330125986    -1.88E-01 1.96E-01 4.45E+02 1.354
 ETOT  5  -122.68103675652    -4.77E-02 4.85E-02 1.77E+01 1.792
 ETOT  6  -122.68531307129    -4.28E-03 1.55E-02 4.44E+00 1.901
 ETOT  7  -122.68499052654     3.23E-04 7.59E-03 6.97E+00 2.022
 ETOT  8  -122.68598209517    -9.92E-04 7.78E-03 7.16E-01 2.013
 ETOT  9  -122.68600992785    -2.78E-05 2.03E-03 6.14E-01 2.050
 ETOT 10  -122.68609727258    -8.73E-05 2.79E-03 2.74E-02 2.083
 ETOT 11  -122.68610205641    -4.78E-06 5.75E-04 8.26E-05 2.076
 ETOT 12  -122.68610207625    -1.98E-08 6.89E-04 1.60E-05 2.077
 ETOT 13  -122.68610208087    -4.62E-09 1.37E-04 2.14E-06 2.077
 ETOT 14  -122.68610208155    -6.72E-10 1.56E-04 3.56E-08 2.077

 At SCF step   14, etot is converged : 
  for the second time, diff in etot=  6.725E-10 < toldfe=  1.000E-08

 Cartesian components of stress tensor (hartree/bohr^3)
  sigma(1 1)=  2.67062746E-02  sigma(3 2)=  0.00000000E+00
  sigma(2 2)=  2.67062746E-02  sigma(3 1)=  0.00000000E+00
  sigma(3 3)=  2.67062746E-02  sigma(2 1)=  0.00000000E+00

================================================================================

 ----iterations are completed or convergence reached----

 Mean square residual over all n,k,spin=   3.3530E-07; max=  1.5610E-04
   0.0625  0.0625  0.0625    1  4.20068E-13 kpt; spin; max resid(k); each band:
  1.08E-13 8.35E-14 6.72E-14 6.72E-14 1.14E-13 2.93E-13 2.93E-13 2.21E-14
  4.20E-13 4.20E-13
   0.1875  0.0625  0.0625    1  2.75523E-12 kpt; spin; max resid(k); each band:
  9.95E-14 1.11E-13 7.43E-14 6.85E-14 2.47E-13 4.31E-13 2.18E-12 2.76E-12
  5.97E-13 3.72E-13
   0.3125  0.0625  0.0625    1  4.67392E-12 kpt; spin; max resid(k); each band:
  7.83E-14 1.53E-13 7.62E-14 6.94E-14 1.46E-12 1.87E-13 1.85E-12 4.67E-12
  3.71E-13 7.98E-13
   0.4375  0.0625  0.0625    1  2.27594E-09 kpt; spin; max resid(k); each band:
  4.98E-14 1.95E-13 7.26E-14 6.98E-14 2.43E-12 1.50E-13 4.53E-13 2.77E-11
  2.12E-11 2.28E-09
  -0.0625  0.0625  0.0625    1  1.08801E-13 kpt; spin; max resid(k); each band:
  1.09E-13 7.00E-14 6.74E-14 6.74E-14 1.05E-13 1.29E-14 1.15E-14 1.15E-14
  9.68E-14 6.12E-14
   0.1875  0.1875  0.0625    1  3.15253E-12 kpt; spin; max resid(k); each band:
  8.45E-14 1.32E-13 8.44E-14 7.27E-14 5.76E-13 2.38E-12 4.12E-13 3.15E-12
  1.24E-12 4.46E-13
   0.3125  0.1875  0.0625    1  5.25322E-10 kpt; spin; max resid(k); each band:
  5.83E-14 1.67E-13 9.16E-14 7.36E-14 1.71E-12 9.65E-13 1.53E-12 9.38E-12
  4.48E-12 5.25E-10
  -0.1875  0.1875  0.0625    1  1.73457E-12 kpt; spin; max resid(k); each band:
  1.05E-13 9.17E-14 7.20E-14 6.86E-14 1.77E-13 7.21E-15 1.66E-12 1.36E-14
  1.73E-12 2.54E-13
   0.3125  0.3125  0.0625    1  2.01895E-08 kpt; spin; max resid(k); each band:
  3.65E-14 1.34E-13 1.59E-13 7.20E-14 1.72E-13 2.21E-12 2.18E-12 8.78E-12
  9.74E-12 2.02E-08
  -0.3125  0.3125  0.0625    1  4.13205E-12 kpt; spin; max resid(k); each band:
  9.13E-14 1.32E-13 7.44E-14 6.93E-14 7.75E-13 4.57E-15 3.19E-12 4.13E-12
  4.45E-13 6.29E-14
  -0.1875  0.3125  0.0625    1  3.64216E-12 kpt; spin; max resid(k); each band:
  9.52E-14 1.16E-13 8.08E-14 7.18E-14 5.13E-13 3.41E-12 7.55E-14 3.64E-12
  2.55E-12 2.63E-12
  -0.4375  0.4375  0.0625    1  3.40316E-11 kpt; spin; max resid(k); each band:
  6.28E-14 1.85E-13 7.07E-14 7.04E-14 2.41E-12 6.53E-14 2.76E-12 3.37E-12
  2.50E-12 3.40E-11
  -0.3125  0.4375  0.0625    1  4.63995E-12 kpt; spin; max resid(k); each band:
  7.57E-14 1.54E-13 8.54E-14 7.29E-14 1.83E-12 3.02E-12 2.66E-12 4.64E-12
  3.99E-12 2.41E-12
  -0.4375 -0.4375  0.0625    1  3.63509E-11 kpt; spin; max resid(k); each band:
  4.71E-14 2.02E-13 8.31E-14 7.37E-14 2.86E-12 7.93E-13 2.58E-12 3.98E-12
  2.44E-11 3.64E-11
  -0.3125 -0.4375  0.0625    1  8.17873E-12 kpt; spin; max resid(k); each band:
  5.53E-14 1.78E-13 1.06E-13 7.07E-14 2.09E-12 3.44E-12 2.91E-12 3.20E-12
  5.11E-12 8.18E-12
   0.1875  0.1875  0.1875    1  2.25587E-12 kpt; spin; max resid(k); each band:
  6.58E-14 1.42E-13 8.86E-14 8.86E-14 4.07E-13 1.07E-12 1.07E-12 2.20E-12
  2.26E-12 4.15E-13
   0.3125  0.1875  0.1875    1  1.70135E-05 kpt; spin; max resid(k); each band:
  3.36E-14 1.69E-13 9.94E-14 9.01E-14 1.40E-12 2.22E-13 4.17E-13 6.80E-12
  9.58E-13 1.70E-05
  -0.1875  0.1875  0.1875    1  4.89630E-13 kpt; spin; max resid(k); each band:
  9.77E-14 1.03E-13 7.95E-14 7.95E-14 4.90E-13 1.68E-13 1.49E-14 1.49E-14
  1.03E-14 4.34E-13
  -0.3125  0.3125  0.1875    1  2.71660E-12 kpt; spin; max resid(k); each band:
  8.41E-14 1.34E-13 8.41E-14 8.58E-14 1.52E-12 1.95E-12 1.53E-14 2.72E-12
  2.48E-14 1.81E-12
  -0.4375  0.4375  0.1875    1  1.15343E-11 kpt; spin; max resid(k); each band:
  6.03E-14 1.88E-13 7.97E-14 8.91E-14 2.86E-12 2.15E-12 3.83E-14 3.27E-12
  1.15E-11 2.71E-12
  -0.3125  0.4375  0.1875    1  2.54907E-12 kpt; spin; max resid(k); each band:
  6.90E-14 1.65E-13 9.44E-14 8.80E-14 2.43E-12 1.64E-12 1.19E-12 1.94E-12
  2.09E-12 2.55E-12
  -0.4375 -0.4375  0.1875    1  7.39075E-11 kpt; spin; max resid(k); each band:
  3.73E-14 2.29E-13 9.47E-14 8.27E-14 2.25E-12 1.91E-12 7.21E-13 2.50E-12
  1.35E-11 7.39E-11
  -0.3125  0.3125  0.3125    1  2.22929E-12 kpt; spin; max resid(k); each band:
  7.45E-14 1.65E-13 8.93E-14 8.93E-14 2.09E-12 2.03E-13 5.43E-14 5.39E-14
  4.64E-14 2.23E-12
  -0.4375  0.4375  0.3125    1  2.07169E-12 kpt; spin; max resid(k); each band:
  5.43E-14 1.96E-13 8.35E-14 1.10E-13 1.53E-12 7.08E-13 2.11E-14 1.81E-12
  2.61E-13 2.07E-12
  -0.4375 -0.4375  0.3125    1  1.21238E-10 kpt; spin; max resid(k); each band:
  2.56E-14 9.96E-14 2.69E-13 8.27E-14 1.01E-12 7.00E-13 1.05E-13 8.40E-12
  4.08E-12 1.21E-10
  -0.4375  0.4375  0.4375    1  1.02059E-12 kpt; spin; max resid(k); each band:
  3.72E-14 2.94E-13 6.91E-14 6.91E-14 2.37E-13 6.97E-13 5.38E-14 4.29E-14
  8.14E-14 1.02E-12
   0.0625  0.0625  0.0625    2  7.01372E-12 kpt; spin; max resid(k); each band:
  5.69E-12 1.46E-12 2.97E-13 2.97E-13 7.01E-12 1.23E-12 1.23E-12 1.29E-12
  1.44E-12 1.44E-12
   0.1875  0.0625  0.0625    2  1.00326E-11 kpt; spin; max resid(k); each band:
  4.70E-12 3.27E-12 6.08E-13 3.61E-13 1.00E-11 1.44E-12 6.56E-12 6.36E-12
  6.81E-12 1.72E-12
   0.3125  0.0625  0.0625    2  3.65837E-11 kpt; spin; max resid(k); each band:
  3.13E-12 6.66E-12 4.64E-13 4.22E-13 1.67E-11 1.18E-12 2.03E-11 3.89E-12
  4.06E-12 3.66E-11
   0.4375  0.0625  0.0625    2  3.70458E-08 kpt; spin; max resid(k); each band:
  1.74E-12 1.01E-11 6.54E-13 4.46E-13 8.99E-12 2.92E-12 2.97E-11 6.95E-12
  3.60E-11 3.70E-08
  -0.0625  0.0625  0.0625    2  6.44139E-12 kpt; spin; max resid(k); each band:
  6.03E-12 5.98E-13 2.72E-13 2.72E-13 6.44E-12 1.06E-13 3.54E-13 3.54E-13
  6.72E-13 3.12E-13
   0.1875  0.1875  0.0625    2  1.89709E-11 kpt; spin; max resid(k); each band:
  3.48E-12 5.12E-12 9.23E-13 6.44E-13 1.78E-11 6.88E-12 6.65E-12 2.83E-12
  1.61E-12 1.90E-11
   0.3125  0.1875  0.0625    2  2.51025E-09 kpt; spin; max resid(k); each band:
  1.86E-12 7.97E-12 1.56E-12 4.73E-13 2.07E-11 6.55E-12 3.34E-11 3.32E-12
  1.24E-11 2.51E-09
  -0.1875  0.1875  0.0625    2  7.55683E-12 kpt; spin; max resid(k); each band:
  5.36E-12 2.12E-12 4.21E-13 3.55E-13 7.56E-12 4.87E-13 4.29E-12 1.07E-12
  2.55E-12 1.01E-12
   0.3125  0.3125  0.0625    2  9.24650E-07 kpt; spin; max resid(k); each band:
  6.45E-13 4.83E-12 7.26E-12 4.90E-13 5.62E-12 3.08E-11 4.88E-11 4.54E-12
  2.56E-10 9.25E-07
  -0.3125  0.3125  0.0625    2  1.25036E-11 kpt; spin; max resid(k); each band:
  4.08E-12 4.77E-12 4.98E-13 3.62E-13 1.21E-11 3.97E-13 1.25E-11 5.33E-12
  4.32E-12 2.68E-12
  -0.1875  0.3125  0.0625    2  1.04211E-11 kpt; spin; max resid(k); each band:
  4.43E-12 3.52E-12 5.36E-13 4.88E-13 1.04E-11 6.14E-12 3.76E-12 4.14E-12
  6.55E-12 2.17E-12
  -0.4375  0.4375  0.0625    2  1.29516E-10 kpt; spin; max resid(k); each band:
  2.36E-12 8.93E-12 3.42E-13 3.75E-13 1.23E-11 5.24E-13 2.05E-11 2.98E-11
  7.80E-11 1.30E-10
  -0.3125  0.4375  0.0625    2  3.98588E-11 kpt; spin; max resid(k); each band:
  3.02E-12 6.34E-12 8.61E-13 5.13E-13 1.86E-11 1.32E-11 1.85E-11 1.18E-11
  7.65E-12 3.99E-11
  -0.4375 -0.4375  0.0625    2  6.31603E-10 kpt; spin; max resid(k); each band:
  1.49E-12 9.85E-12 8.64E-13 5.21E-13 1.05E-11 5.33E-12 2.55E-11 1.48E-11
  2.93E-10 6.32E-10
  -0.3125 -0.4375  0.0625    2  2.12269E-10 kpt; spin; max resid(k); each band:
  1.75E-12 7.71E-12 2.37E-12 3.38E-13 2.70E-11 8.25E-12 2.25E-11 2.25E-11
  1.21E-11 2.12E-10
   0.1875  0.1875  0.1875    2  3.52897E-11 kpt; spin; max resid(k); each band:
  2.19E-12 6.68E-12 1.34E-12 1.34E-12 3.37E-11 6.52E-12 6.52E-12 1.05E-12
  9.91E-13 3.53E-11
   0.3125  0.1875  0.1875    2  1.56102E-04 kpt; spin; max resid(k); each band:
  4.83E-13 8.86E-12 2.23E-12 1.50E-12 7.57E-12 6.30E-12 4.46E-11 1.32E-11
  3.20E-11 1.56E-04
  -0.1875  0.1875  0.1875    2  8.28560E-12 kpt; spin; max resid(k); each band:
  4.78E-12 3.01E-12 6.55E-13 6.55E-13 8.29E-12 2.30E-12 2.30E-12 5.35E-13
  8.14E-14 1.42E-12
  -0.3125  0.3125  0.1875    2  1.27716E-11 kpt; spin; max resid(k); each band:
  3.75E-12 4.50E-12 5.25E-13 1.11E-12 1.28E-11 4.89E-12 3.21E-12 7.89E-12
  5.08E-12 7.51E-12
  -0.4375  0.4375  0.1875    2  1.57384E-10 kpt; spin; max resid(k); each band:
  2.18E-12 7.92E-12 7.37E-13 9.02E-13 1.70E-11 1.72E-11 3.80E-12 2.94E-11
  4.88E-11 1.57E-10
  -0.3125  0.4375  0.1875    2  2.94006E-11 kpt; spin; max resid(k); each band:
  2.72E-12 5.90E-12 1.23E-12 1.05E-12 1.87E-11 4.10E-12 1.54E-11 1.22E-11
  1.42E-11 2.94E-11
  -0.4375 -0.4375  0.1875    2  2.62273E-09 kpt; spin; max resid(k); each band:
  9.19E-13 9.24E-12 1.57E-12 4.98E-13 7.82E-12 1.90E-11 1.99E-11 9.60E-11
  1.81E-11 2.62E-09
  -0.3125  0.3125  0.3125    2  1.46865E-11 kpt; spin; max resid(k); each band:
  3.12E-12 5.60E-12 7.97E-13 7.97E-13 1.45E-11 4.63E-13 1.07E-11 1.07E-11
  4.26E-13 1.47E-11
  -0.4375  0.4375  0.3125    2  2.49917E-11 kpt; spin; max resid(k); each band:
  1.91E-12 6.32E-12 7.07E-13 1.74E-12 1.37E-11 2.68E-12 1.90E-11 2.37E-11
  1.52E-11 2.50E-11
  -0.4375 -0.4375  0.3125    2  2.44490E-07 kpt; spin; max resid(k); each band:
  3.76E-13 1.90E-12 7.99E-12 6.84E-13 8.95E-12 4.21E-12 4.26E-12 5.01E-11
  1.62E-11 2.44E-07
  -0.4375  0.4375  0.4375    2  1.38927E-11 kpt; spin; max resid(k); each band:
  1.10E-12 8.01E-12 7.48E-13 7.48E-13 5.44E-12 3.95E-13 2.84E-12 2.55E-12
  1.01E-12 1.39E-11
 reduced coordinates (array xred) for    1 atoms
       0.000000000000      0.000000000000      0.000000000000
 rms dE/dt=  0.0000E+00; max dE/dt=  0.0000E+00; dE/dt below (all hartree)
    1       0.000000000000      0.000000000000      0.000000000000

 cartesian coordinates (angstrom) at end:
    1      0.00000000000000     0.00000000000000     0.00000000000000

 cartesian forces (hartree/bohr) at end:
    1     -0.00000000000000    -0.00000000000000    -0.00000000000000
 frms,max,avg= 0.0000000E+00 0.0000000E+00   0.000E+00  0.000E+00  0.000E+00 h/b

 cartesian forces (eV/Angstrom) at end:
    1     -0.00000000000000    -0.00000000000000    -0.00000000000000
 frms,max,avg= 0.0000000E+00 0.0000000E+00   0.000E+00  0.000E+00  0.000E+00 e/A
 length scales=  5.420000000000  5.420000000000  5.420000000000 bohr
              =  2.868140470558  2.868140470558  2.868140470558 angstroms
 prteigrs : about to open file Fe_e50_k8_noSO.o_DS1_EIG
 Fermi (or HOMO) energy (eV) =  12.24142   Average Vxc (eV)= -14.01188
 Eigenvalues (   eV  ) for nkpt=  26  k points, SPIN UP:
 kpt#   1, nband= 10, wtk=  0.01563, kpt=  0.0625  0.0625  0.0625 (reduced coord)
 -79.67337 -45.46542 -45.40434 -45.40434   3.72000   9.47235   9.47235  10.31939
  11.03321  11.03321
 kpt#   2, nband= 10, wtk=  0.04688, kpt=  0.1875  0.0625  0.0625 (reduced coord)
 -79.65072 -45.56328 -45.44349 -45.40228   5.31263   9.01153   9.18495  10.93326
  11.26859  11.43063
 kpt#   3, nband= 10, wtk=  0.04688, kpt=  0.3125  0.0625  0.0625 (reduced coord)
 -79.61298 -45.64838 -45.48634 -45.40291   6.85790   8.60354   9.67587  11.17241
  11.45875  12.92460
 kpt#   4, nband= 10, wtk=  0.02344, kpt=  0.4375  0.0625  0.0625 (reduced coord)
 -79.60856 -45.68761 -45.50478 -45.40351   7.07030   8.47259  10.68503  11.30300
  11.45281  13.90320
 kpt#   5, nband= 10, wtk=  0.01172, kpt= -0.0625  0.0625  0.0625 (reduced coord)
 -79.68790 -45.40892 -45.40590 -45.40590   3.12286   9.69555   9.75668   9.75668
  10.83375  11.07264
 kpt#   6, nband= 10, wtk=  0.04688, kpt=  0.1875  0.1875  0.0625 (reduced coord)
 -79.62631 -45.62491 -45.47356 -45.42512   6.96597   8.69876   8.80615  11.05641
  11.42377  13.08013
 kpt#   7, nband= 10, wtk=  0.09375, kpt=  0.3125  0.1875  0.0625 (reduced coord)
 -79.59913 -45.64525 -45.52407 -45.43141   7.76475   8.54432   9.39941  11.24664
  11.56857  15.20233
 kpt#   8, nband= 10, wtk=  0.04688, kpt= -0.1875  0.1875  0.0625 (reduced coord)
 -79.67410 -45.49206 -45.43436 -45.40510   4.28263   9.37114   9.51579  10.38310
  10.61860  11.32481
 kpt#   9, nband= 10, wtk=  0.01563, kpt=  0.3125  0.3125  0.0625 (reduced coord)
 -79.59474 -45.59256 -45.59256 -45.44244   8.14996   8.85553   8.85553  11.48280
  11.48280  18.46616
 kpt#  10, nband= 10, wtk=  0.04688, kpt= -0.3125  0.3125  0.0625 (reduced coord)
 -79.63075 -45.60397 -45.47197 -45.40178   6.06921   8.95980   9.44230  10.93861
  11.49966  11.66453
 kpt#  11, nband= 10, wtk=  0.04688, kpt= -0.1875  0.3125  0.0625 (reduced coord)
 -79.63831 -45.56551 -45.46515 -45.42262   5.77755   9.18012   9.36248  10.47214
  11.35038  11.66963
 kpt#  12, nband= 10, wtk=  0.04688, kpt= -0.4375  0.4375  0.0625 (reduced coord)
 -79.61788 -45.68388 -45.50176 -45.40296   6.94127   8.58307  10.23536  11.11155
  12.18384  12.62745
 kpt#  13, nband= 10, wtk=  0.09375, kpt= -0.3125  0.4375  0.0625 (reduced coord)
 -79.61821 -45.64252 -45.51174 -45.42735   7.21153   8.81639   9.25477  10.82349
  11.75302  13.15028
 kpt#  14, nband= 10, wtk=  0.04688, kpt= -0.4375 -0.4375  0.0625 (reduced coord)
 -79.60731 -45.67598 -45.53085 -45.42663   7.39473   8.79977   9.50468  10.97230
  12.18310  14.79702
 kpt#  15, nband= 10, wtk=  0.04688, kpt= -0.3125 -0.4375  0.0625 (reduced coord)
 -79.59127 -45.63859 -45.57307 -45.43562   8.15970   8.58044   9.03023  11.22692
  11.78731  16.04131
 kpt#  16, nband= 10, wtk=  0.01563, kpt=  0.1875  0.1875  0.1875 (reduced coord)
 -79.59227 -45.62940 -45.47814 -45.47814   8.38657   8.52630   8.52630  11.49682
  11.49682  15.34108
 kpt#  17, nband= 10, wtk=  0.02344, kpt=  0.3125  0.1875  0.1875 (reduced coord)
 -79.60868 -45.60475 -45.53708 -45.48376   8.26981   8.43531   8.96028  11.51126
  11.51851  17.71535
 kpt#  18, nband= 10, wtk=  0.01172, kpt= -0.1875  0.1875  0.1875 (reduced coord)
 -79.66677 -45.50505 -45.46505 -45.46505   5.32961   9.72628   9.75524   9.75524
  10.40569  11.55976
 kpt#  19, nband= 10, wtk=  0.04688, kpt= -0.3125  0.3125  0.1875 (reduced coord)
 -79.61882 -45.59189 -45.50265 -45.46850   6.84744   8.95435   9.69081  10.42733
  11.56623  12.21636
 kpt#  20, nband= 10, wtk=  0.04688, kpt= -0.4375  0.4375  0.1875 (reduced coord)
 -79.58999 -45.65966 -45.53146 -45.46413   7.57615   8.84161   9.47997  10.69095
  12.64930  14.23886
 kpt#  21, nband= 10, wtk=  0.04688, kpt= -0.3125  0.4375  0.1875 (reduced coord)
 -79.58927 -45.62912 -45.55479 -45.48358   7.81298   8.32610   9.82748  10.88036
  12.04717  14.26089
 kpt#  22, nband= 10, wtk=  0.04688, kpt= -0.4375 -0.4375  0.1875 (reduced coord)
 -79.59105 -45.64786 -45.58399 -45.48526   7.87670   8.25125   9.58319  11.17763
  12.35487  16.98792
 kpt#  23, nband= 10, wtk=  0.01172, kpt= -0.3125  0.3125  0.3125 (reduced coord)
 -79.60546 -45.58662 -45.54872 -45.54872   7.54411   8.32970  10.67203  10.67203
  11.37830  13.52825
 kpt#  24, nband= 10, wtk=  0.04688, kpt= -0.4375  0.4375  0.3125 (reduced coord)
 -79.58803 -45.63399 -45.57683 -45.55396   7.59169   7.77399  10.80679  11.15818
  12.45918  16.27759
 kpt#  25, nband= 10, wtk=  0.01563, kpt= -0.4375 -0.4375  0.3125 (reduced coord)
 -79.56507 -45.61766 -45.61766 -45.55987   7.52491   7.52491  10.95011  12.32457
  12.32457  19.56992
 kpt#  26, nband= 10, wtk=  0.01172, kpt= -0.4375  0.4375  0.4375 (reduced coord)
 -79.53820 -45.61082 -45.60481 -45.60481   7.28163   7.33401  12.31316  12.31316
  12.59647  18.76697
 Eigenvalues (   eV  ) for nkpt=  26  k points, SPIN DOWN:
 kpt#   1, nband= 10, wtk=  0.01563, kpt=  0.0625  0.0625  0.0625 (reduced coord)
 -76.95041 -42.83541 -42.76712 -42.76712   4.17012  11.29479  11.29479  12.23172
  13.53640  13.53640
 kpt#   2, nband= 10, wtk=  0.04688, kpt=  0.1875  0.0625  0.0625 (reduced coord)
 -76.92589 -42.94430 -42.81025 -42.76537   5.81673  10.76275  10.91181  13.30101
  13.45666  13.80028
 kpt#   3, nband= 10, wtk=  0.04688, kpt=  0.3125  0.0625  0.0625 (reduced coord)
 -76.88656 -43.03969 -42.85789 -42.76626   7.74778  10.29386  10.92021  13.55638
  14.02925  14.89988
 kpt#   4, nband= 10, wtk=  0.02344, kpt=  0.4375  0.0625  0.0625 (reduced coord)
 -76.88118 -43.08282 -42.87837 -42.76690   8.35042  10.13704  11.50732  13.69765
  14.04681  15.67959
 kpt#   5, nband= 10, wtk=  0.01172, kpt= -0.0625  0.0625  0.0625 (reduced coord)
 -76.96597 -42.77280 -42.76852 -42.76852   3.56674  11.57651  11.60979  11.60979
  13.33049  13.62370
 kpt#   6, nband= 10, wtk=  0.04688, kpt=  0.1875  0.1875  0.0625 (reduced coord)
 -76.90001 -43.01307 -42.84410 -42.79051   7.63733  10.34379  10.41670  13.48240
  13.96815  15.02067
 kpt#   7, nband= 10, wtk=  0.09375, kpt=  0.3125  0.1875  0.0625 (reduced coord)
 -76.87190 -43.03627 -42.90027 -42.79773   8.99810  10.12686  10.60692  13.67979
  14.09849  16.85897
 kpt#   8, nband= 10, wtk=  0.04688, kpt= -0.1875  0.1875  0.0625 (reduced coord)
 -76.95017 -42.86480 -42.79990 -42.76812   4.74568  11.18045  11.33366  12.31598
  13.00630  13.88032
 kpt#   9, nband= 10, wtk=  0.01563, kpt=  0.3125  0.3125  0.0625 (reduced coord)
 -76.86701 -42.97706 -42.97706 -42.80999   9.63085  10.21213  10.21213  13.95527
  13.95527  19.78577
 kpt#  10, nband= 10, wtk=  0.04688, kpt= -0.3125  0.3125  0.0625 (reduced coord)
 -76.90511 -42.98995 -42.84175 -42.76488   6.70163  10.70196  11.03317  13.21251
  13.70336  14.03170
 kpt#  11, nband= 10, wtk=  0.04688, kpt= -0.1875  0.3125  0.0625 (reduced coord)
 -76.91296 -42.94709 -42.83442 -42.78761   6.31761  10.97120  11.09438  12.72579
  13.36912  14.16095
 kpt#  12, nband= 10, wtk=  0.04688, kpt= -0.4375  0.4375  0.0625 (reduced coord)
 -76.89071 -43.07890 -42.87439 -42.76598   8.12342  10.29081  11.37523  13.42378
  14.27885  14.78651
 kpt#  13, nband= 10, wtk=  0.09375, kpt= -0.3125  0.4375  0.0625 (reduced coord)
 -76.89117 -43.03282 -42.88591 -42.79269   8.15538  10.48649  10.81044  13.04033
  14.09384  15.10465
 kpt#  14, nband= 10, wtk=  0.04688, kpt= -0.4375 -0.4375  0.0625 (reduced coord)
 -76.87955 -43.06970 -42.90729 -42.79201   8.75663  10.48238  10.83832  13.23352
  14.39040  16.40247
 kpt#  15, nband= 10, wtk=  0.04688, kpt= -0.3125 -0.4375  0.0625 (reduced coord)
 -76.86345 -43.02828 -42.95489 -42.80195   9.49658  10.14489  10.57789  13.44172
  14.04339  17.59917
 kpt#  16, nband= 10, wtk=  0.01563, kpt=  0.1875  0.1875  0.1875 (reduced coord)
 -76.86535 -43.01831 -42.85011 -42.85011   9.28862  10.05969  10.05969  14.04518
  14.04518  17.05569
 kpt#  17, nband= 10, wtk=  0.02344, kpt=  0.3125  0.1875  0.1875 (reduced coord)
 -76.88068 -42.99019 -42.91500 -42.85612   9.63830   9.93042  10.23349  14.06338
  14.11905  19.02995
 kpt#  18, nband= 10, wtk=  0.01172, kpt= -0.1875  0.1875  0.1875 (reduced coord)
 -76.94148 -42.87983 -42.83363 -42.83363   5.83404  11.56861  11.56861  11.95719
  12.35143  14.10458
 kpt#  19, nband= 10, wtk=  0.04688, kpt= -0.3125  0.3125  0.1875 (reduced coord)
 -76.89211 -42.97633 -42.87581 -42.83844   7.58278  10.84768  11.47199  12.37883
  13.58918  14.49912
 kpt#  20, nband= 10, wtk=  0.04688, kpt= -0.4375  0.4375  0.1875 (reduced coord)
 -76.86214 -43.05203 -42.90771 -42.83375   8.89939  10.39953  11.23210  12.74718
  14.79318  15.85538
 kpt#  21, nband= 10, wtk=  0.04688, kpt= -0.3125  0.4375  0.1875 (reduced coord)
 -76.86114 -43.01772 -42.93373 -42.85523   8.97133  10.12707  11.58526  12.84023
  14.15686  15.97080
 kpt#  22, nband= 10, wtk=  0.04688, kpt= -0.4375 -0.4375  0.1875 (reduced coord)
 -76.86242 -43.03781 -42.96626 -42.85679   9.49432   9.84648  11.28044  13.19101
  14.45866  18.29141
 kpt#  23, nband= 10, wtk=  0.01172, kpt= -0.3125  0.3125  0.3125 (reduced coord)
 -76.87669 -42.97049 -42.92644 -42.92644   8.67086  10.24135  12.50629  12.50629
  13.43185  15.27741
 kpt#  24, nband= 10, wtk=  0.04688, kpt= -0.4375  0.4375  0.3125 (reduced coord)
 -76.85865 -43.02220 -42.95804 -42.93245   9.16280   9.54026  12.68275  13.03769
  14.58733  17.46863
 kpt#  25, nband= 10, wtk=  0.01563, kpt= -0.4375 -0.4375  0.3125 (reduced coord)
 -76.83553 -43.00398 -43.00398 -42.93915   9.23262   9.23262  12.79092  14.38520
  14.38520  20.51257
 kpt#  26, nband= 10, wtk=  0.01172, kpt= -0.4375  0.4375  0.4375 (reduced coord)
 -76.80861 -42.99676 -42.98964 -42.98964   9.01326   9.02694  14.35711  14.35711
  14.72479  19.52966
 Total charge density [el/Bohr^3]
,     Maximum=    3.6479E+00  at reduced coord.    0.8667    0.9333    0.9333
,Next maximum=    3.6479E+00  at reduced coord.    0.9333    0.8667    0.9333
,     Minimum=    1.7800E-02  at reduced coord.    0.0000    0.0000    0.0000
,Next minimum=    3.6324E-02  at reduced coord.    0.6000    0.5000    0.1000
,  Integrated=    1.6000E+01
 Spin up density      [el/Bohr^3]
,     Maximum=    2.1972E+00  at reduced coord.    0.0000    0.9000    0.9000
,Next maximum=    2.1972E+00  at reduced coord.    0.9000    0.0000    0.9000
,     Minimum=    8.9193E-03  at reduced coord.    0.0000    0.0000    0.0000
,Next minimum=    1.7275E-02  at reduced coord.    0.6333    0.5000    0.1333
,  Integrated=    9.0387E+00
 Spin down density    [el/Bohr^3]
,     Maximum=    1.6130E+00  at reduced coord.    0.8667    0.9667    0.9667
,Next maximum=    1.6130E+00  at reduced coord.    0.9667    0.8667    0.9667
,     Minimum=    8.8811E-03  at reduced coord.    0.0000    0.0000    0.0000
,Next minimum=    1.8903E-02  at reduced coord.    0.6000    0.5000    0.1000
,  Integrated=    6.9613E+00
 Magnetization (spin up - spin down) [el/Bohr^3]
,     Maximum=    7.7057E-01  at reduced coord.    0.0000    0.9000    0.9000
,Next maximum=    7.7057E-01  at reduced coord.    0.9000    0.0000    0.9000
,     Minimum=   -2.2958E-03  at reduced coord.    0.7333    0.5000    0.2333
,Next minimum=   -2.2958E-03  at reduced coord.    0.5000    0.7333    0.2333
,  Integrated=    2.0773E+00
 Relative magnetization (=zeta, between -1 and 1)
,     Maximum=    2.9594E-01  at reduced coord.    0.0000    0.7333    0.7333
,Next maximum=    2.9594E-01  at reduced coord.    0.7333    0.0000    0.7333
,     Minimum=   -6.0257E-02  at reduced coord.    0.7333    0.4667    0.2333
,Next minimum=   -6.0257E-02  at reduced coord.    0.7667    0.5000    0.2333

--------------------------------------------------------------------------------
 Components of total free energy (in Hartree) :

    Kinetic energy  =  6.31959220477976E+01
    Hartree energy  =  3.15136032643323E+01
    XC energy       = -1.28000777504475E+01
    Ewald energy    = -8.59449965935601E+01
    PspCore energy  =  3.40158543545826E+00
    Loc. psp. energy= -1.03952227066169E+02
    NL   psp  energy= -1.80995308015849E+01
    >>>>> Internal E= -1.22685721464173E+02

    -kT*entropy     = -3.80617374619602E-04
    >>>>>>>>> Etotal= -1.22686102081547E+02

 Other information on the energy :
    Total energy(eV)= -3.33845861802813E+03 ; Band energy (Ha)=  -1.2666103939E+01
--------------------------------------------------------------------------------

 Cartesian components of stress tensor (hartree/bohr^3)
  sigma(1 1)=  2.67062746E-02  sigma(3 2)=  0.00000000E+00
  sigma(2 2)=  2.67062746E-02  sigma(3 1)=  0.00000000E+00
  sigma(3 3)=  2.67062746E-02  sigma(2 1)=  0.00000000E+00

-Cartesian components of stress tensor (GPa)         [Pressure= -7.8573E+02 GPa]
- sigma(1 1)=  7.85725594E+02  sigma(3 2)=  0.00000000E+00
- sigma(2 2)=  7.85725594E+02  sigma(3 1)=  0.00000000E+00
- sigma(3 3)=  7.85725594E+02  sigma(2 1)=  0.00000000E+00

================================================================================
== DATASET  2 ==================================================================

 mkfilename : getden/=0, take file _DEN from output of DATASET   1.

 Exchange-correlation functional for the present dataset will be:
  LDA: new Teter (4/93) with spin-polarized option - ixc=1
 Citation for XC functional:
  S. Goedecker, M. Teter, J. Huetter, PRB 54, 1703 (1996)

 Real(R)+Recip(G) space primitive vectors, cartesian coordinates (Bohr,Bohr^-1):
 R(1)= -2.7100000  2.7100000  2.7100000  G(1)=  0.0000000  0.1845018  0.1845018
 R(2)=  2.7100000 -2.7100000  2.7100000  G(2)=  0.1845018  0.0000000  0.1845018
 R(3)=  2.7100000  2.7100000 -2.7100000  G(3)=  0.1845018  0.1845018  0.0000000
 Unit cell volume ucvol=  7.9610044E+01 bohr^3
 Angles (23,13,12)=  1.09471221E+02  1.09471221E+02  1.09471221E+02 degrees

 getcut: wavevector=  0.0000  0.0000  0.0000  ngfft=  30  30  30
         ecut(hartree)=     50.000   => boxcut(ratio)=   2.00790
--------------------------------------------------------------------------------

P newkpt: treating     20 bands with npw=    1355 for ikpt=   1
P newkpt: treating     20 bands with npw=    1351 for ikpt=   2
P newkpt: treating     20 bands with npw=    1339 for ikpt=   3
P newkpt: treating     20 bands with npw=    1342 for ikpt=   4
P newkpt: treating     20 bands with npw=    1361 for ikpt=   5
P newkpt: treating     20 bands with npw=    1346 for ikpt=   6
P newkpt: treating     20 bands with npw=    1337 for ikpt=   7
P newkpt: treating     20 bands with npw=    1360 for ikpt=   8
P newkpt: treating     20 bands with npw=    1337 for ikpt=   9
P newkpt: treating     20 bands with npw=    1345 for ikpt=  10
P newkpt: treating     20 bands with npw=    1348 for ikpt=  11
P newkpt: treating     20 bands with npw=    1347 for ikpt=  12
P newkpt: treating     20 bands with npw=    1347 for ikpt=  13
P newkpt: treating     20 bands with npw=    1345 for ikpt=  14
P newkpt: treating     20 bands with npw=    1337 for ikpt=  15
P newkpt: treating     20 bands with npw=    1331 for ikpt=  16
P newkpt: treating     20 bands with npw=    1346 for ikpt=  17
P newkpt: treating     20 bands with npw=    1365 for ikpt=  18
P newkpt: treating     20 bands with npw=    1346 for ikpt=  19
P newkpt: treating     20 bands with npw=    1336 for ikpt=  20
P newkpt: treating     20 bands with npw=    1337 for ikpt=  21
P newkpt: treating     20 bands with npw=    1343 for ikpt=  22
P newkpt: treating     20 bands with npw=    1349 for ikpt=  23
P newkpt: treating     20 bands with npw=    1345 for ikpt=  24
P newkpt: treating     20 bands with npw=    1334 for ikpt=  25
P newkpt: treating     20 bands with npw=    1320 for ikpt=  26
P newkpt: treating     20 bands with npw=    1355 for ikpt=   1
P newkpt: treating     20 bands with npw=    1351 for ikpt=   2
P newkpt: treating     20 bands with npw=    1339 for ikpt=   3
P newkpt: treating     20 bands with npw=    1342 for ikpt=   4
P newkpt: treating     20 bands with npw=    1361 for ikpt=   5
P newkpt: treating     20 bands with npw=    1346 for ikpt=   6
P newkpt: treating     20 bands with npw=    1337 for ikpt=   7
P newkpt: treating     20 bands with npw=    1360 for ikpt=   8
P newkpt: treating     20 bands with npw=    1337 for ikpt=   9
P newkpt: treating     20 bands with npw=    1345 for ikpt=  10
P newkpt: treating     20 bands with npw=    1348 for ikpt=  11
P newkpt: treating     20 bands with npw=    1347 for ikpt=  12
P newkpt: treating     20 bands with npw=    1347 for ikpt=  13
P newkpt: treating     20 bands with npw=    1345 for ikpt=  14
P newkpt: treating     20 bands with npw=    1337 for ikpt=  15
P newkpt: treating     20 bands with npw=    1331 for ikpt=  16
P newkpt: treating     20 bands with npw=    1346 for ikpt=  17
P newkpt: treating     20 bands with npw=    1365 for ikpt=  18
P newkpt: treating     20 bands with npw=    1346 for ikpt=  19
P newkpt: treating     20 bands with npw=    1336 for ikpt=  20
P newkpt: treating     20 bands with npw=    1337 for ikpt=  21
P newkpt: treating     20 bands with npw=    1343 for ikpt=  22
P newkpt: treating     20 bands with npw=    1349 for ikpt=  23
P newkpt: treating     20 bands with npw=    1345 for ikpt=  24
P newkpt: treating     20 bands with npw=    1334 for ikpt=  25
P newkpt: treating     20 bands with npw=    1320 for ikpt=  26


================================================================================
 prteigrs : about to open file Fe_e50_k8_noSO.o_DS2_EIG

 SPIN UP channel
 Non-SCF case, kpt    1 (  0.06250  0.06250  0.06250), residuals and eigenvalues=
  1.54E-11  1.19E-11  6.78E-12  3.19E-11  6.97E-11  8.92E-11  3.85E-11  5.27E-11
  2.92E-11  5.11E-11  1.15E-11  3.44E-11  2.77E-10  9.17E-11  6.91E-11  1.74E-09
  2.85E-07  2.76E-06  6.73E-06  2.93E-09
 -2.9279E+00 -1.6708E+00 -1.6686E+00 -1.6686E+00  1.3671E-01  3.4810E-01
  3.4810E-01  3.7923E-01  4.0546E-01  4.0546E-01  1.1923E+00  1.1923E+00
  1.3031E+00  1.3376E+00  1.5030E+00  1.5030E+00  1.5854E+00  1.5854E+00
  1.7572E+00  1.8284E+00
  prteigrs : nnsclo,ikpt=  300    1 max resid (incl. the buffer)=  6.73091E-06
 Non-SCF case, kpt    2 (  0.18750  0.06250  0.06250), residuals and eigenvalues=
  5.46E-11  1.15E-11  7.06E-12  7.35E-11  1.93E-11  3.63E-11  8.04E-11  2.38E-11
  5.65E-11  2.41E-11  9.39E-12  3.35E-11  3.65E-11  3.11E-11  6.47E-11  8.22E-11
  1.43E-10  8.38E-09  5.33E-08  1.99E-04
 -2.9271E+00 -1.6744E+00 -1.6700E+00 -1.6685E+00  1.9524E-01  3.3117E-01
  3.3754E-01  4.0179E-01  4.1411E-01  4.2007E-01  9.9427E-01  1.1055E+00
  1.1632E+00  1.3621E+00  1.4993E+00  1.5402E+00  1.6473E+00  1.7183E+00
  1.8388E+00  2.0209E+00
  prteigrs : nnsclo,ikpt=  300    2 max resid (incl. the buffer)=  1.99018E-04
 Non-SCF case, kpt    3 (  0.31250  0.06250  0.06250), residuals and eigenvalues=
  4.86E-11  6.70E-11  1.24E-11  5.17E-11  7.08E-11  1.34E-11  7.17E-11  2.29E-11
  3.41E-11  3.00E-11  8.10E-11  7.66E-12  1.28E-11  8.69E-11  3.11E-11  2.84E-11
  1.73E-10  1.05E-07  1.74E-06  1.48E-05
 -2.9257E+00 -1.6775E+00 -1.6716E+00 -1.6685E+00  2.5202E-01  3.1617E-01
  3.5558E-01  4.1058E-01  4.2110E-01  4.7497E-01  7.9697E-01  1.0400E+00
  1.0758E+00  1.3569E+00  1.4810E+00  1.6558E+00  1.6610E+00  1.9220E+00
  2.0013E+00  2.0502E+00
  prteigrs : nnsclo,ikpt=  300    3 max resid (incl. the buffer)=  1.48105E-05
 Non-SCF case, kpt    4 (  0.43750  0.06250  0.06250), residuals and eigenvalues=
  5.40E-11  1.08E-11  1.18E-11  2.21E-11  3.53E-11  4.24E-11  4.08E-11  4.27E-11
  1.19E-11  2.22E-11  9.20E-11  1.79E-11  2.90E-11  7.02E-11  9.91E-12  8.97E-12
  5.86E-09  1.39E-08  1.28E-04  4.71E-03
 -2.9256E+00 -1.6790E+00 -1.6723E+00 -1.6686E+00  2.5983E-01  3.1136E-01
  3.9267E-01  4.1538E-01  4.2088E-01  5.1093E-01  6.8835E-01  1.0162E+00
  1.0406E+00  1.3528E+00  1.4807E+00  1.6418E+00  1.8263E+00  1.8476E+00
  2.0751E+00  2.1591E+00
  prteigrs : nnsclo,ikpt=  300    4 max resid (incl. the buffer)=  4.70873E-03
 Non-SCF case, kpt    5 ( -0.06250  0.06250  0.06250), residuals and eigenvalues=
  3.08E-11  1.65E-11  4.23E-11  1.65E-11  8.72E-11  6.03E-11  7.31E-11  1.80E-11
  1.59E-11  4.47E-11  8.89E-12  7.75E-11  2.07E-11  8.09E-10  1.17E-08  1.60E-07
  8.26E-06  1.12E-04  2.06E-05  3.06E-09
 -2.9285E+00 -1.6688E+00 -1.6686E+00 -1.6686E+00  1.1476E-01  3.5630E-01
  3.5855E-01  3.5855E-01  3.9813E-01  4.0691E-01  1.2556E+00  1.3000E+00
  1.3000E+00  1.4037E+00  1.4716E+00  1.4716E+00  1.5995E+00  1.6101E+00
  1.6516E+00  1.7178E+00
  prteigrs : nnsclo,ikpt=  300    5 max resid (incl. the buffer)=  1.11961E-04
 Non-SCF case, kpt    6 (  0.18750  0.18750  0.06250), residuals and eigenvalues=
  9.21E-11  1.10E-11  1.67E-11  8.92E-12  3.86E-11  9.15E-11  1.30E-11  2.42E-11
  2.70E-11  1.22E-11  2.72E-11  1.34E-11  7.02E-12  8.08E-12  3.87E-11  1.59E-11
  3.06E-11  1.40E-09  1.86E-10  4.80E-05
 -2.9262E+00 -1.6767E+00 -1.6711E+00 -1.6693E+00  2.5599E-01  3.1967E-01
  3.2362E-01  4.0631E-01  4.1981E-01  4.8068E-01  9.0956E-01  9.1761E-01
  1.0545E+00  1.4273E+00  1.5658E+00  1.6391E+00  1.7257E+00  1.7930E+00
  1.8391E+00  2.1044E+00
  prteigrs : nnsclo,ikpt=  300    6 max resid (incl. the buffer)=  4.80029E-05
 Non-SCF case, kpt    7 (  0.31250  0.18750  0.06250), residuals and eigenvalues=
  8.52E-11  1.25E-11  1.05E-11  9.38E-12  1.87E-11  1.52E-11  3.29E-11  4.91E-11
  2.90E-11  4.71E-11  2.75E-11  6.15E-12  1.47E-11  9.59E-11  2.58E-11  8.94E-10
  5.85E-08  2.91E-07  2.80E-06  6.62E-05
 -2.9252E+00 -1.6774E+00 -1.6730E+00 -1.6696E+00  2.8535E-01  3.1400E-01
  3.4542E-01  4.1330E-01  4.2513E-01  5.5867E-01  7.3687E-01  8.6656E-01
  1.0108E+00  1.4463E+00  1.5926E+00  1.6660E+00  1.8163E+00  1.9076E+00
  1.9673E+00  2.0704E+00
  prteigrs : nnsclo,ikpt=  300    7 max resid (incl. the buffer)=  6.61958E-05
 Non-SCF case, kpt    8 ( -0.18750  0.18750  0.06250), residuals and eigenvalues=
  3.80E-11  2.39E-11  2.82E-11  1.23E-11  2.91E-11  6.06E-11  4.04E-11  3.42E-11
  7.87E-11  3.28E-11  4.71E-11  3.87E-11  1.24E-11  8.83E-11  6.94E-11  2.75E-11
  5.63E-08  3.94E-07  1.86E-04  6.88E-04
 -2.9280E+00 -1.6718E+00 -1.6697E+00 -1.6686E+00  1.5738E-01  3.4438E-01
  3.4970E-01  3.8157E-01  3.9022E-01  4.1618E-01  1.0996E+00  1.2118E+00
  1.2499E+00  1.3815E+00  1.3862E+00  1.4326E+00  1.6889E+00  1.6998E+00
  1.8077E+00  1.8771E+00
  prteigrs : nnsclo,ikpt=  300    8 max resid (incl. the buffer)=  6.88017E-04
 Non-SCF case, kpt    9 (  0.31250  0.31250  0.06250), residuals and eigenvalues=
  6.39E-11  6.39E-12  5.68E-11  1.08E-11  1.56E-11  6.35E-11  2.08E-11  1.66E-11
  3.40E-11  6.12E-11  7.96E-11  7.91E-11  4.51E-11  4.46E-11  1.01E-11  6.32E-08
  3.49E-08  6.94E-07  1.98E-07  2.78E-04
 -2.9251E+00 -1.6755E+00 -1.6755E+00 -1.6700E+00  2.9950E-01  3.2543E-01
  3.2543E-01  4.2198E-01  4.2198E-01  6.7862E-01  6.7862E-01  7.4230E-01
  9.9692E-01  1.5266E+00  1.5266E+00  1.7927E+00  1.9158E+00  1.9158E+00
  1.9235E+00  2.0810E+00
  prteigrs : nnsclo,ikpt=  300    9 max resid (incl. the buffer)=  2.78071E-04
 Non-SCF case, kpt   10 ( -0.31250  0.31250  0.06250), residuals and eigenvalues=
  2.55E-11  9.20E-11  2.44E-11  1.94E-11  3.63E-11  8.99E-11  2.06E-11  5.84E-11
  9.79E-11  3.83E-11  1.16E-11  6.83E-11  2.65E-11  7.84E-11  9.34E-11  6.23E-11
  1.66E-09  5.95E-07  8.91E-05  6.80E-04
 -2.9264E+00 -1.6759E+00 -1.6711E+00 -1.6685E+00  2.2304E-01  3.2926E-01
  3.4700E-01  4.0198E-01  4.2260E-01  4.2866E-01  8.8860E-01  1.1225E+00
  1.1583E+00  1.3421E+00  1.3947E+00  1.4952E+00  1.7415E+00  1.8594E+00
  1.9924E+00  2.0299E+00
  prteigrs : nnsclo,ikpt=  300   10 max resid (incl. the buffer)=  6.80112E-04
 Non-SCF case, kpt   11 ( -0.18750  0.31250  0.06250), residuals and eigenvalues=
  5.96E-11  4.82E-11  6.74E-11  5.85E-11  1.38E-11  3.62E-11  1.70E-11  1.75E-11
  2.72E-11  3.56E-11  5.73E-11  1.12E-11  4.11E-12  7.02E-11  1.24E-11  1.99E-10
  1.05E-07  2.29E-07  3.85E-06  1.01E-04
 -2.9267E+00 -1.6745E+00 -1.6708E+00 -1.6693E+00  2.1232E-01  3.3736E-01
  3.4406E-01  3.8484E-01  4.1712E-01  4.2885E-01  1.0045E+00  1.0192E+00
  1.2498E+00  1.2684E+00  1.4109E+00  1.5543E+00  1.6988E+00  1.8555E+00
  1.8750E+00  1.9694E+00
  prteigrs : nnsclo,ikpt=  300   11 max resid (incl. the buffer)=  1.01255E-04
 Non-SCF case, kpt   12 ( -0.43750  0.43750  0.06250), residuals and eigenvalues=
  5.51E-11  5.77E-11  7.67E-11  6.95E-11  1.69E-11  1.41E-11  7.38E-11  2.46E-11
  1.87E-11  3.05E-11  3.75E-11  7.44E-12  4.43E-11  3.83E-11  6.94E-11  5.10E-11
  1.45E-10  2.88E-07  4.62E-05  6.38E-03
 -2.9259E+00 -1.6789E+00 -1.6722E+00 -1.6685E+00  2.5509E-01  3.1542E-01
  3.7614E-01  4.0834E-01  4.4775E-01  4.6405E-01  7.2023E-01  1.0706E+00
  1.0874E+00  1.3256E+00  1.4133E+00  1.5558E+00  1.7619E+00  1.9256E+00
  2.0789E+00  2.1736E+00
  prteigrs : nnsclo,ikpt=  300   12 max resid (incl. the buffer)=  6.38184E-03
 Non-SCF case, kpt   13 ( -0.31250  0.43750  0.06250), residuals and eigenvalues=
  3.97E-11  4.56E-11  5.40E-11  6.48E-11  1.30E-11  9.67E-11  5.32E-11  1.53E-11
  1.70E-11  9.68E-12  1.25E-11  2.23E-11  8.34E-12  8.81E-11  1.28E-11  6.00E-11
  4.91E-11  1.05E-09  8.75E-08  7.16E-04
 -2.9259E+00 -1.6773E+00 -1.6725E+00 -1.6694E+00  2.6502E-01  3.2399E-01
  3.4010E-01  3.9775E-01  4.3191E-01  4.8326E-01  8.0874E-01  9.4279E-01
  1.1660E+00  1.3071E+00  1.4352E+00  1.5894E+00  1.7496E+00  1.8579E+00
  1.9922E+00  2.1603E+00
  prteigrs : nnsclo,ikpt=  300   13 max resid (incl. the buffer)=  7.15821E-04
 Non-SCF case, kpt   14 ( -0.43750 -0.43750  0.06250), residuals and eigenvalues=
  2.11E-11  1.38E-11  9.21E-11  3.76E-11  9.12E-11  5.82E-11  1.47E-11  1.64E-11
  2.34E-11  2.99E-11  2.33E-11  4.11E-11  1.26E-11  2.55E-11  6.14E-11  3.36E-11
  3.56E-10  1.15E-07  1.93E-06  2.54E-04
 -2.9255E+00 -1.6786E+00 -1.6732E+00 -1.6694E+00  2.7175E-01  3.2338E-01
  3.4929E-01  4.0322E-01  4.4772E-01  5.4378E-01  6.8904E-01  9.1490E-01
  1.1349E+00  1.3275E+00  1.4629E+00  1.5702E+00  1.6945E+00  2.0437E+00
  2.0859E+00  2.1340E+00
  prteigrs : nnsclo,ikpt=  300   14 max resid (incl. the buffer)=  2.53512E-04
 Non-SCF case, kpt   15 ( -0.31250 -0.43750  0.06250), residuals and eigenvalues=
  2.11E-11  1.47E-11  5.60E-11  9.73E-11  6.73E-11  5.01E-11  2.49E-11  4.17E-11
  9.56E-11  2.42E-11  2.43E-11  9.06E-11  4.57E-11  2.72E-11  1.01E-11  2.68E-11
  2.08E-09  5.89E-10  3.04E-04  1.05E-03
 -2.9249E+00 -1.6772E+00 -1.6748E+00 -1.6697E+00  2.9986E-01  3.1532E-01
  3.3185E-01  4.1258E-01  4.3317E-01  5.8951E-01  7.4863E-01  7.7265E-01
  1.1821E+00  1.3202E+00  1.3990E+00  1.6424E+00  1.8332E+00  1.8415E+00
  2.1102E+00  2.1664E+00
  prteigrs : nnsclo,ikpt=  300   15 max resid (incl. the buffer)=  1.04895E-03
 Non-SCF case, kpt   16 (  0.18750  0.18750  0.18750), residuals and eigenvalues=
  3.68E-11  7.20E-11  8.72E-11  5.60E-11  6.68E-11  1.56E-11  4.43E-11  3.76E-11
  4.02E-11  2.93E-11  3.31E-11  1.60E-11  5.82E-12  8.50E-11  2.47E-11  1.70E-10
  4.26E-10  2.25E-08  5.27E-08  1.19E-06
 -2.9250E+00 -1.6769E+00 -1.6713E+00 -1.6713E+00  3.0820E-01  3.1333E-01
  3.1333E-01  4.2250E-01  4.2250E-01  5.6377E-01  8.5059E-01  8.5059E-01
  8.5385E-01  1.5868E+00  1.6937E+00  1.6937E+00  1.7783E+00  1.8717E+00
  1.8717E+00  2.1015E+00
  prteigrs : nnsclo,ikpt=  300   16 max resid (incl. the buffer)=  1.18852E-06
 Non-SCF case, kpt   17 (  0.31250  0.18750  0.18750), residuals and eigenvalues=
  4.15E-11  8.71E-11  1.73E-11  9.27E-12  4.75E-11  1.49E-11  4.60E-11  8.39E-11
  3.90E-11  4.79E-11  5.93E-11  7.41E-11  2.71E-11  2.05E-11  7.73E-10  1.72E-08
  4.31E-09  1.59E-06  5.10E-05  9.12E-04
 -2.9256E+00 -1.6759E+00 -1.6735E+00 -1.6715E+00  3.0391E-01  3.0999E-01
  3.2928E-01  4.2303E-01  4.2329E-01  6.5099E-01  7.0961E-01  8.2840E-01
  8.2917E-01  1.6295E+00  1.7359E+00  1.7629E+00  1.8079E+00  1.8993E+00
  2.0055E+00  2.0448E+00
  prteigrs : nnsclo,ikpt=  300   17 max resid (incl. the buffer)=  9.11580E-04
 Non-SCF case, kpt   18 ( -0.18750  0.18750  0.18750), residuals and eigenvalues=
  7.83E-11  9.32E-11  5.26E-11  9.53E-12  2.57E-11  3.44E-11  2.41E-11  9.72E-11
  4.36E-11  5.09E-11  7.38E-11  1.51E-11  3.59E-11  7.65E-11  5.84E-11  7.24E-11
  1.90E-08  1.18E-07  1.73E-05  1.50E-06
 -2.9277E+00 -1.6723E+00 -1.6708E+00 -1.6708E+00  1.9586E-01  3.5743E-01
  3.5850E-01  3.5850E-01  3.8240E-01  4.2481E-01  1.1172E+00  1.1330E+00
  1.1330E+00  1.1805E+00  1.5201E+00  1.5201E+00  1.6289E+00  1.8047E+00
  1.9353E+00  1.9484E+00
  prteigrs : nnsclo,ikpt=  300   18 max resid (incl. the buffer)=  1.73331E-05
 Non-SCF case, kpt   19 ( -0.31250  0.31250  0.18750), residuals and eigenvalues=
  6.61E-11  9.25E-11  1.68E-11  7.08E-11  2.32E-11  1.17E-11  2.27E-11  4.71E-11
  6.18E-11  1.58E-11  2.22E-11  5.03E-11  4.72E-11  5.75E-11  4.39E-11  4.02E-11
  2.40E-10  7.70E-10  6.55E-09  1.49E-05
 -2.9259E+00 -1.6755E+00 -1.6722E+00 -1.6709E+00  2.5164E-01  3.2906E-01
  3.5613E-01  3.8320E-01  4.2505E-01  4.4894E-01  9.1816E-01  1.0338E+00
  1.0884E+00  1.2171E+00  1.5108E+00  1.5639E+00  1.7184E+00  1.7735E+00
  1.9507E+00  2.0786E+00
  prteigrs : nnsclo,ikpt=  300   19 max resid (incl. the buffer)=  1.49275E-05
 Non-SCF case, kpt   20 ( -0.43750  0.43750  0.18750), residuals and eigenvalues=
  3.22E-11  6.59E-11  1.55E-11  1.11E-11  2.12E-11  8.31E-12  3.98E-11  7.24E-11
  9.97E-11  7.08E-12  5.03E-11  2.06E-11  1.65E-11  1.17E-11  7.43E-11  2.82E-11
  4.22E-11  2.20E-08  3.17E-04  2.78E-05
 -2.9249E+00 -1.6780E+00 -1.6733E+00 -1.6708E+00  2.7842E-01  3.2492E-01
  3.4838E-01  3.9288E-01  4.6485E-01  5.2327E-01  7.3638E-01  9.6821E-01
  1.0576E+00  1.3162E+00  1.4826E+00  1.4935E+00  1.6293E+00  1.9969E+00
  2.1759E+00  2.1831E+00
  prteigrs : nnsclo,ikpt=  300   20 max resid (incl. the buffer)=  3.16808E-04
 Non-SCF case, kpt   21 ( -0.31250  0.43750  0.18750), residuals and eigenvalues=
  6.09E-11  6.94E-11  3.12E-11  3.19E-11  1.79E-11  8.15E-11  2.09E-11  8.28E-12
  2.16E-11  1.25E-11  9.07E-11  2.54E-11  2.33E-11  9.96E-11  1.45E-11  8.17E-11
  7.16E-11  2.94E-11  1.33E-06  4.83E-04
 -2.9249E+00 -1.6768E+00 -1.6741E+00 -1.6715E+00  2.8712E-01  3.0598E-01
  3.6115E-01  3.9984E-01  4.4272E-01  5.2408E-01  8.4431E-01  8.5023E-01
  1.1495E+00  1.1760E+00  1.4612E+00  1.5605E+00  1.7609E+00  1.7969E+00
  2.1095E+00  2.2503E+00
  prteigrs : nnsclo,ikpt=  300   21 max resid (incl. the buffer)=  4.83225E-04
 Non-SCF case, kpt   22 ( -0.43750 -0.43750  0.18750), residuals and eigenvalues=
  4.14E-11  3.23E-11  6.01E-11  5.21E-11  2.23E-11  3.94E-11  2.20E-11  6.76E-11
  8.48E-11  5.64E-12  6.88E-11  7.71E-12  7.40E-11  3.29E-11  5.31E-11  2.91E-11
  6.01E-11  1.78E-09  9.68E-08  5.02E-04
 -2.9249E+00 -1.6775E+00 -1.6752E+00 -1.6716E+00  2.8946E-01  3.0323E-01
  3.5217E-01  4.1077E-01  4.5403E-01  6.2429E-01  7.0168E-01  8.1689E-01
  1.1407E+00  1.2580E+00  1.3487E+00  1.5322E+00  1.7740E+00  1.9925E+00
  2.0759E+00  2.3098E+00
  prteigrs : nnsclo,ikpt=  300   22 max resid (incl. the buffer)=  5.02378E-04
 Non-SCF case, kpt   23 ( -0.31250  0.31250  0.31250), residuals and eigenvalues=
  3.68E-11  4.33E-11  1.05E-11  7.60E-11  2.80E-11  1.55E-11  6.51E-11  5.65E-11
  8.61E-11  8.88E-12  7.60E-11  6.01E-12  5.68E-11  1.43E-11  6.48E-11  5.75E-11
  2.17E-11  5.70E-11  5.39E-10  4.26E-04
 -2.9255E+00 -1.6753E+00 -1.6739E+00 -1.6739E+00  2.7724E-01  3.0611E-01
  3.9219E-01  3.9219E-01  4.1814E-01  4.9715E-01  9.2418E-01  9.2418E-01
  1.0483E+00  1.0775E+00  1.4993E+00  1.6793E+00  1.7339E+00  1.7339E+00
  1.9377E+00  2.3430E+00
  prteigrs : nnsclo,ikpt=  300   23 max resid (incl. the buffer)=  4.25538E-04
 Non-SCF case, kpt   24 ( -0.43750  0.43750  0.31250), residuals and eigenvalues=
  4.81E-11  9.73E-11  4.59E-11  4.01E-11  4.40E-11  7.95E-12  1.37E-11  8.23E-12
  7.45E-11  8.44E-12  9.50E-12  5.38E-12  5.48E-11  3.83E-11  1.30E-11  2.02E-11
  2.28E-11  8.73E-10  5.03E-07  1.40E-03
 -2.9248E+00 -1.6770E+00 -1.6749E+00 -1.6741E+00  2.7899E-01  2.8569E-01
  3.9714E-01  4.1005E-01  4.5786E-01  5.9819E-01  7.6857E-01  8.5291E-01
  1.0435E+00  1.1321E+00  1.3215E+00  1.6576E+00  1.7836E+00  1.9388E+00
  2.1046E+00  2.2502E+00
  prteigrs : nnsclo,ikpt=  300   24 max resid (incl. the buffer)=  1.39757E-03
 Non-SCF case, kpt   25 ( -0.43750 -0.43750  0.31250), residuals and eigenvalues=
  8.95E-11  9.82E-12  3.76E-11  6.47E-11  1.86E-11  9.81E-11  1.25E-11  9.82E-12
  9.45E-11  2.44E-11  5.15E-11  1.35E-11  1.59E-11  5.89E-11  1.02E-11  6.35E-11
  5.49E-10  1.52E-08  3.61E-07  1.67E-05
 -2.9240E+00 -1.6764E+00 -1.6764E+00 -1.6743E+00  2.7653E-01  2.7653E-01
  4.0241E-01  4.5292E-01  4.5292E-01  7.1918E-01  7.1918E-01  7.5004E-01
  1.0981E+00  1.0981E+00  1.2147E+00  1.6739E+00  1.9154E+00  2.0240E+00
  2.0240E+00  2.3031E+00
  prteigrs : nnsclo,ikpt=  300   25 max resid (incl. the buffer)=  1.67244E-05
 Non-SCF case, kpt   26 ( -0.43750  0.43750  0.43750), residuals and eigenvalues=
  2.21E-11  1.66E-11  4.32E-11  4.19E-11  2.23E-11  5.50E-11  4.48E-11  3.01E-11
  5.69E-11  9.52E-12  2.82E-11  1.01E-11  3.35E-11  9.21E-12  5.76E-11  6.30E-11
  3.10E-09  3.46E-08  2.38E-07  9.07E-04
 -2.9230E+00 -1.6762E+00 -1.6759E+00 -1.6759E+00  2.6759E-01  2.6952E-01
  4.5250E-01  4.5250E-01  4.6291E-01  6.8967E-01  7.7485E-01  7.7485E-01
  1.0223E+00  1.0520E+00  1.1647E+00  1.7622E+00  2.0018E+00  2.0018E+00
  2.0770E+00  2.2332E+00
  prteigrs : nnsclo,ikpt=  300   26 max resid (incl. the buffer)=  9.07157E-04

 SPIN DOWN channel
 Non-SCF case, kpt    1 (  0.06250  0.06250  0.06250), residuals and eigenvalues=
  9.51E-11  1.26E-11  7.19E-12  3.07E-11  6.27E-11  8.36E-11  3.32E-11  7.42E-11
  3.44E-11  8.33E-11  1.70E-11  3.10E-11  1.23E-10  2.51E-11  1.54E-10  2.12E-09
  1.02E-07  1.35E-06  1.55E-06  3.81E-09
 -2.8279E+00 -1.5742E+00 -1.5717E+00 -1.5717E+00  1.5325E-01  4.1507E-01
  4.1507E-01  4.4951E-01  4.9745E-01  4.9745E-01  1.2139E+00  1.2139E+00
  1.3383E+00  1.3443E+00  1.5258E+00  1.5258E+00  1.6150E+00  1.6150E+00
  1.7882E+00  1.8573E+00
  prteigrs : nnsclo,ikpt=  300    1 max resid (incl. the buffer)=  1.54533E-06
 Non-SCF case, kpt    2 (  0.18750  0.06250  0.06250), residuals and eigenvalues=
  2.07E-11  1.12E-11  8.65E-12  7.13E-11  2.98E-11  3.39E-11  8.03E-11  2.79E-11
  2.13E-11  5.66E-11  4.16E-11  3.91E-11  5.36E-11  3.32E-11  1.02E-11  4.90E-11
  1.38E-10  1.22E-08  5.32E-08  2.50E-04
 -2.8270E+00 -1.5782E+00 -1.5733E+00 -1.5716E+00  2.1376E-01  3.9552E-01
  4.0100E-01  4.8880E-01  4.9452E-01  5.0715E-01  1.0277E+00  1.1295E+00
  1.1953E+00  1.3753E+00  1.5289E+00  1.5608E+00  1.6690E+00  1.7445E+00
  1.8632E+00  2.0483E+00
  prteigrs : nnsclo,ikpt=  300    2 max resid (incl. the buffer)=  2.49519E-04
 Non-SCF case, kpt    3 (  0.31250  0.06250  0.06250), residuals and eigenvalues=
  1.36E-11  6.43E-11  1.12E-11  5.14E-11  2.97E-11  7.14E-11  6.02E-11  4.53E-11
  2.91E-11  3.11E-11  6.74E-11  1.43E-11  6.36E-11  5.72E-11  4.28E-11  6.31E-11
  5.01E-11  4.71E-08  8.23E-07  1.65E-05
 -2.8255E+00 -1.5817E+00 -1.5750E+00 -1.5716E+00  2.8472E-01  3.7829E-01
  4.0131E-01  4.9819E-01  5.1556E-01  5.4756E-01  8.4044E-01  1.0623E+00
  1.1053E+00  1.3790E+00  1.5114E+00  1.6727E+00  1.6809E+00  1.9437E+00
  2.0273E+00  2.0778E+00
  prteigrs : nnsclo,ikpt=  300    3 max resid (incl. the buffer)=  1.64958E-05
 Non-SCF case, kpt    4 (  0.43750  0.06250  0.06250), residuals and eigenvalues=
  4.39E-11  1.01E-11  1.16E-11  1.93E-11  1.34E-11  2.36E-11  2.92E-11  3.84E-11
  8.28E-11  9.80E-11  6.84E-11  8.68E-12  2.05E-11  8.43E-12  1.28E-11  9.23E-12
  2.40E-09  1.38E-08  2.11E-04  6.28E-03
 -2.8253E+00 -1.5833E+00 -1.5758E+00 -1.5717E+00  3.0687E-01  3.7253E-01
  4.2289E-01  5.0338E-01  5.1621E-01  5.7621E-01  7.4283E-01  1.0374E+00
  1.0682E+00  1.3777E+00  1.5124E+00  1.6552E+00  1.8429E+00  1.8765E+00
  2.1079E+00  2.1786E+00
  prteigrs : nnsclo,ikpt=  300    4 max resid (incl. the buffer)=  6.28404E-03
 Non-SCF case, kpt    5 ( -0.06250  0.06250  0.06250), residuals and eigenvalues=
  2.50E-11  9.04E-11  4.46E-11  1.27E-11  9.94E-11  6.98E-11  4.75E-11  1.67E-11
  8.93E-11  9.59E-11  4.77E-11  5.79E-11  9.17E-11  7.62E-10  3.16E-09  3.51E-07
  2.62E-07  1.62E-04  5.06E-05  5.33E-09
 -2.8285E+00 -1.5719E+00 -1.5717E+00 -1.5717E+00  1.3107E-01  4.2543E-01
  4.2665E-01  4.2665E-01  4.8988E-01  5.0066E-01  1.2684E+00  1.3112E+00
  1.3112E+00  1.4292E+00  1.5054E+00  1.5054E+00  1.6160E+00  1.6450E+00
  1.6827E+00  1.7521E+00
  prteigrs : nnsclo,ikpt=  300    5 max resid (incl. the buffer)=  1.62407E-04
 Non-SCF case, kpt    6 (  0.18750  0.18750  0.06250), residuals and eigenvalues=
  7.32E-11  1.06E-11  1.66E-11  8.96E-12  2.21E-11  8.99E-11  1.25E-11  2.56E-11
  3.02E-11  1.59E-11  4.36E-11  1.81E-11  7.70E-12  5.68E-12  5.32E-11  3.34E-11
  2.66E-11  1.23E-09  5.64E-11  5.86E-05
 -2.8260E+00 -1.5807E+00 -1.5745E+00 -1.5725E+00  2.8067E-01  3.8013E-01
  3.8280E-01  4.9547E-01  5.1332E-01  5.5200E-01  9.4665E-01  9.4949E-01
  1.0828E+00  1.4404E+00  1.5888E+00  1.6619E+00  1.7513E+00  1.8169E+00
  1.8624E+00  2.1348E+00
  prteigrs : nnsclo,ikpt=  300    6 max resid (incl. the buffer)=  5.85881E-05
 Non-SCF case, kpt    7 (  0.31250  0.18750  0.06250), residuals and eigenvalues=
  6.49E-11  9.66E-12  8.99E-12  9.78E-11  8.54E-12  7.06E-12  1.39E-11  3.46E-11
  1.92E-11  6.17E-11  2.62E-11  8.67E-11  9.41E-11  5.14E-11  1.23E-11  4.63E-10
  2.38E-08  1.35E-07  2.28E-06  3.59E-05
 -2.8250E+00 -1.5816E+00 -1.5766E+00 -1.5728E+00  3.3067E-01  3.7215E-01
  3.8980E-01  5.0272E-01  5.1811E-01  6.1955E-01  7.8197E-01  8.9984E-01
  1.0385E+00  1.4640E+00  1.6098E+00  1.6913E+00  1.8367E+00  1.9321E+00
  1.9941E+00  2.0938E+00
  prteigrs : nnsclo,ikpt=  300    7 max resid (incl. the buffer)=  3.58665E-05
 Non-SCF case, kpt    8 ( -0.18750  0.18750  0.06250), residuals and eigenvalues=
  2.96E-11  2.30E-11  2.89E-11  1.17E-11  4.58E-11  3.71E-11  2.59E-11  7.39E-11
  8.20E-11  3.90E-11  6.19E-11  3.61E-11  2.72E-11  5.26E-11  6.96E-11  3.17E-11
  6.83E-08  2.90E-08  2.03E-04  2.31E-04
 -2.8279E+00 -1.5753E+00 -1.5729E+00 -1.5717E+00  1.7440E-01  4.1087E-01
  4.1650E-01  4.5260E-01  4.7797E-01  5.1009E-01  1.1285E+00  1.2301E+00
  1.2767E+00  1.4059E+00  1.4120E+00  1.4546E+00  1.7169E+00  1.7188E+00
  1.8371E+00  1.9090E+00
  prteigrs : nnsclo,ikpt=  300    8 max resid (incl. the buffer)=  2.31107E-04
 Non-SCF case, kpt    9 (  0.31250  0.31250  0.06250), residuals and eigenvalues=
  4.84E-11  9.84E-11  5.11E-11  1.30E-11  9.10E-12  6.37E-11  9.46E-12  1.65E-11
  4.22E-11  8.74E-12  1.74E-11  5.30E-12  4.42E-11  4.53E-11  1.19E-11  4.94E-08
  4.84E-08  5.40E-07  2.13E-07  6.48E-05
 -2.8248E+00 -1.5794E+00 -1.5794E+00 -1.5732E+00  3.5393E-01  3.7529E-01
  3.7529E-01  5.1284E-01  5.1284E-01  7.2711E-01  7.2711E-01  7.7990E-01
  1.0261E+00  1.5425E+00  1.5425E+00  1.8231E+00  1.9337E+00  1.9337E+00
  1.9507E+00  2.0893E+00
  prteigrs : nnsclo,ikpt=  300    9 max resid (incl. the buffer)=  6.47938E-05
 Non-SCF case, kpt   10 ( -0.31250  0.31250  0.06250), residuals and eigenvalues=
  1.93E-11  9.26E-11  2.32E-11  2.01E-11  2.53E-11  9.79E-11  1.92E-11  6.26E-11
  4.03E-11  2.03E-11  2.07E-11  7.45E-11  3.64E-11  8.20E-11  9.64E-11  7.85E-11
  6.24E-10  4.99E-07  1.02E-04  6.77E-04
 -2.8262E+00 -1.5799E+00 -1.5744E+00 -1.5716E+00  2.4628E-01  3.9329E-01
  4.0546E-01  4.8555E-01  5.0359E-01  5.1565E-01  9.2764E-01  1.1404E+00
  1.1895E+00  1.3691E+00  1.4233E+00  1.5160E+00  1.7597E+00  1.8805E+00
  2.0181E+00  2.0576E+00
  prteigrs : nnsclo,ikpt=  300   10 max resid (incl. the buffer)=  6.77480E-04
 Non-SCF case, kpt   11 ( -0.18750  0.31250  0.06250), residuals and eigenvalues=
  4.26E-11  4.26E-11  7.88E-11  2.01E-11  6.14E-12  4.65E-11  1.65E-11  4.62E-11
  5.38E-11  5.20E-11  7.56E-11  2.94E-11  3.45E-11  3.31E-11  8.49E-11  5.17E-11
  8.60E-09  2.88E-08  5.02E-07  8.00E-06
 -2.8265E+00 -1.5783E+00 -1.5741E+00 -1.5724E+00  2.3217E-01  4.0318E-01
  4.0771E-01  4.6766E-01  4.9130E-01  5.2040E-01  1.0397E+00  1.0494E+00
  1.2749E+00  1.2911E+00  1.4358E+00  1.5749E+00  1.7267E+00  1.8742E+00
  1.8974E+00  1.9984E+00
  prteigrs : nnsclo,ikpt=  300   11 max resid (incl. the buffer)=  8.00227E-06
 Non-SCF case, kpt   12 ( -0.43750  0.43750  0.06250), residuals and eigenvalues=
  4.38E-11  5.94E-11  6.74E-11  8.59E-11  6.74E-12  1.25E-11  2.03E-11  2.23E-11
  5.03E-11  3.15E-11  8.32E-11  8.45E-11  4.35E-11  5.42E-11  9.20E-11  4.30E-11
  8.98E-11  2.26E-07  2.59E-05  5.62E-03
 -2.8257E+00 -1.5831E+00 -1.5756E+00 -1.5716E+00  2.9853E-01  3.7818E-01
  4.1803E-01  4.9331E-01  5.2474E-01  5.4339E-01  7.7154E-01  1.0868E+00
  1.1153E+00  1.3562E+00  1.4453E+00  1.5732E+00  1.7865E+00  1.9473E+00
  2.0976E+00  2.2012E+00
  prteigrs : nnsclo,ikpt=  300   12 max resid (incl. the buffer)=  5.62026E-03
 Non-SCF case, kpt   13 ( -0.31250  0.43750  0.06250), residuals and eigenvalues=
  3.15E-11  4.29E-11  5.11E-11  6.06E-11  8.44E-12  5.14E-11  1.38E-11  8.20E-11
  2.97E-11  1.80E-11  2.92E-11  3.12E-11  9.27E-12  7.23E-11  1.38E-11  5.23E-11
  6.93E-11  1.23E-09  8.70E-08  9.15E-04
 -2.8257E+00 -1.5814E+00 -1.5760E+00 -1.5726E+00  2.9970E-01  3.8537E-01
  3.9727E-01  4.7922E-01  5.1794E-01  5.5508E-01  8.5062E-01  9.7536E-01
  1.1881E+00  1.3333E+00  1.4599E+00  1.6145E+00  1.7767E+00  1.8799E+00
  2.0131E+00  2.1913E+00
  prteigrs : nnsclo,ikpt=  300   13 max resid (incl. the buffer)=  9.14741E-04
 Non-SCF case, kpt   14 ( -0.43750 -0.43750  0.06250), residuals and eigenvalues=
  1.94E-11  1.50E-11  1.04E-11  4.59E-11  6.59E-12  6.55E-11  3.80E-11  9.09E-11
  2.44E-11  4.66E-11  4.37E-11  6.14E-11  2.89E-11  5.98E-11  2.40E-11  3.32E-11
  5.48E-10  1.09E-07  1.56E-06  3.24E-04
 -2.8253E+00 -1.5828E+00 -1.5768E+00 -1.5726E+00  3.2180E-01  3.8522E-01
  3.9830E-01  4.8632E-01  5.2883E-01  6.0278E-01  7.4157E-01  9.4623E-01
  1.1559E+00  1.3572E+00  1.4812E+00  1.5986E+00  1.7259E+00  2.0569E+00
  2.1083E+00  2.1589E+00
  prteigrs : nnsclo,ikpt=  300   14 max resid (incl. the buffer)=  3.23943E-04
 Non-SCF case, kpt   15 ( -0.31250 -0.43750  0.06250), residuals and eigenvalues=
  1.29E-11  1.33E-11  6.54E-11  8.35E-11  5.67E-11  1.41E-11  1.17E-11  2.26E-11
  2.03E-11  2.82E-11  5.77E-11  9.09E-12  3.65E-11  3.71E-11  3.93E-11  5.13E-11
  3.78E-09  1.02E-09  1.96E-04  2.27E-04
 -2.8247E+00 -1.5813E+00 -1.5786E+00 -1.5729E+00  3.4899E-01  3.7282E-01
  3.8873E-01  4.9397E-01  5.1608E-01  6.4676E-01  7.9541E-01  8.0902E-01
  1.2072E+00  1.3427E+00  1.4214E+00  1.6769E+00  1.8556E+00  1.8644E+00
  2.1318E+00  2.1853E+00
  prteigrs : nnsclo,ikpt=  300   15 max resid (incl. the buffer)=  2.26759E-04
 Non-SCF case, kpt   16 (  0.18750  0.18750  0.18750), residuals and eigenvalues=
  2.74E-11  6.59E-11  9.16E-11  5.17E-11  1.38E-11  1.54E-11  8.79E-11  4.02E-11
  3.54E-11  7.92E-11  7.30E-11  3.82E-11  9.43E-12  3.76E-11  1.93E-11  1.00E-10
  2.47E-10  4.91E-08  1.08E-07  5.24E-07
 -2.8248E+00 -1.5809E+00 -1.5747E+00 -1.5747E+00  3.4135E-01  3.6968E-01
  3.6968E-01  5.1615E-01  5.1615E-01  6.2678E-01  8.8215E-01  8.8818E-01
  8.8818E-01  1.5939E+00  1.7122E+00  1.7122E+00  1.7950E+00  1.9029E+00
  1.9029E+00  2.1236E+00
  prteigrs : nnsclo,ikpt=  300   16 max resid (incl. the buffer)=  5.23884E-07
 Non-SCF case, kpt   17 (  0.31250  0.18750  0.18750), residuals and eigenvalues=
  3.42E-11  7.05E-11  1.70E-11  8.45E-12  3.51E-11  9.90E-11  3.22E-11  9.49E-11
  4.16E-11  8.30E-12  8.92E-12  7.37E-12  4.93E-11  1.44E-11  2.49E-10  8.26E-09
  6.82E-10  5.82E-07  2.05E-05  8.90E-04
 -2.8253E+00 -1.5799E+00 -1.5771E+00 -1.5749E+00  3.5420E-01  3.6493E-01
  3.7607E-01  5.1682E-01  5.1886E-01  6.9912E-01  7.5400E-01  8.5877E-01
  8.6665E-01  1.6410E+00  1.7502E+00  1.7848E+00  1.8168E+00  1.9173E+00
  2.0159E+00  2.0799E+00
  prteigrs : nnsclo,ikpt=  300   17 max resid (incl. the buffer)=  8.90495E-04
 Non-SCF case, kpt   18 ( -0.18750  0.18750  0.18750), residuals and eigenvalues=
  6.84E-11  6.93E-12  5.03E-11  1.05E-11  2.70E-11  1.86E-11  9.21E-11  2.45E-11
  4.17E-11  6.28E-11  1.41E-11  2.62E-11  7.83E-11  9.18E-11  4.56E-11  7.95E-11
  2.55E-08  2.09E-07  5.76E-06  1.69E-05
 -2.8276E+00 -1.5758E+00 -1.5741E+00 -1.5741E+00  2.1440E-01  4.2514E-01
  4.2514E-01  4.3942E-01  4.5390E-01  5.1833E-01  1.1460E+00  1.1652E+00
  1.1652E+00  1.2027E+00  1.5384E+00  1.5384E+00  1.6601E+00  1.8339E+00
  1.9603E+00  1.9629E+00
  prteigrs : nnsclo,ikpt=  300   18 max resid (incl. the buffer)=  1.69026E-05
 Non-SCF case, kpt   19 ( -0.31250  0.31250  0.18750), residuals and eigenvalues=
  4.75E-11  9.43E-11  1.36E-11  9.31E-11  5.87E-12  2.63E-11  1.84E-11  6.21E-11
  6.18E-11  2.89E-11  1.56E-11  6.88E-11  5.51E-11  5.49E-11  5.35E-11  1.51E-11
  2.03E-10  1.50E-09  2.86E-08  7.27E-06
 -2.8257E+00 -1.5794E+00 -1.5757E+00 -1.5743E+00  2.7866E-01  3.9864E-01
  4.2159E-01  4.5491E-01  4.9939E-01  5.3283E-01  9.5548E-01  1.0665E+00
  1.1172E+00  1.2435E+00  1.5359E+00  1.5866E+00  1.7467E+00  1.7963E+00
  1.9763E+00  2.0982E+00
  prteigrs : nnsclo,ikpt=  300   19 max resid (incl. the buffer)=  7.27282E-06
 Non-SCF case, kpt   20 ( -0.43750  0.43750  0.18750), residuals and eigenvalues=
  3.11E-11  6.53E-11  1.46E-11  1.12E-11  1.11E-11  6.72E-11  3.32E-11  5.51E-11
  1.38E-11  1.37E-11  9.97E-12  3.13E-11  3.04E-11  1.09E-11  7.95E-11  1.86E-11
  4.36E-11  2.77E-09  2.13E-04  1.46E-04
[...]
,     Minimum=    8.9193E-03  at reduced coord.    0.0000    0.0000    0.0000
,Next minimum=    1.7275E-02  at reduced coord.    0.6333    0.5000    0.1333
,  Integrated=    9.0387E+00
 Spin down density    [el/Bohr^3]
,     Maximum=    1.6130E+00  at reduced coord.    0.8667    0.9667    0.9667
,Next maximum=    1.6130E+00  at reduced coord.    0.9667    0.8667    0.9667
,     Minimum=    8.8811E-03  at reduced coord.    0.0000    0.0000    0.0000
,Next minimum=    1.8903E-02  at reduced coord.    0.6000    0.5000    0.1000
,  Integrated=    6.9613E+00
 Magnetization (spin up - spin down) [el/Bohr^3]
,     Maximum=    7.7057E-01  at reduced coord.    0.0000    0.9000    0.9000
,Next maximum=    7.7057E-01  at reduced coord.    0.9000    0.0000    0.9000
,     Minimum=   -2.2958E-03  at reduced coord.    0.7333    0.5000    0.2333
,Next minimum=   -2.2958E-03  at reduced coord.    0.5000    0.7333    0.2333
,  Integrated=    2.0773E+00
 Relative magnetization (=zeta, between -1 and 1)
,     Maximum=    2.9594E-01  at reduced coord.    0.0000    0.7333    0.7333
,Next maximum=    2.9594E-01  at reduced coord.    0.7333    0.0000    0.7333
,     Minimum=   -6.0257E-02  at reduced coord.    0.7333    0.4667    0.2333
,Next minimum=   -6.0257E-02  at reduced coord.    0.7667    0.5000    0.2333

== END DATASET(S) ==============================================================
================================================================================
  
 -outvars: echo values of variables after computation  --------
            acell      5.4200000000E+00  5.4200000000E+00  5.4200000000E+00 Bohr
              amu      5.58470000E+01
             ecut      5.00000000E+01 Hartree
           enunit           1
           etotal1    -1.2268610208E+02
            fcart1    -0.0000000000E+00 -0.0000000000E+00 -0.0000000000E+00
           getden1          0
           getden2          1
             iscf1          7
             iscf2         -2
           jdtset        1    2
              kpt      6.25000000E-02  6.25000000E-02  6.25000000E-02
                       1.87500000E-01  6.25000000E-02  6.25000000E-02
                       3.12500000E-01  6.25000000E-02  6.25000000E-02
                       4.37500000E-01  6.25000000E-02  6.25000000E-02
                      -6.25000000E-02  6.25000000E-02  6.25000000E-02
                       1.87500000E-01  1.87500000E-01  6.25000000E-02
                       3.12500000E-01  1.87500000E-01  6.25000000E-02
                      -1.87500000E-01  1.87500000E-01  6.25000000E-02
                       3.12500000E-01  3.12500000E-01  6.25000000E-02
                      -3.12500000E-01  3.12500000E-01  6.25000000E-02
                      -1.87500000E-01  3.12500000E-01  6.25000000E-02
                      -4.37500000E-01  4.37500000E-01  6.25000000E-02
                      -3.12500000E-01  4.37500000E-01  6.25000000E-02
                      -4.37500000E-01 -4.37500000E-01  6.25000000E-02
                      -3.12500000E-01 -4.37500000E-01  6.25000000E-02
                       1.87500000E-01  1.87500000E-01  1.87500000E-01
                       3.12500000E-01  1.87500000E-01  1.87500000E-01
                      -1.87500000E-01  1.87500000E-01  1.87500000E-01
                      -3.12500000E-01  3.12500000E-01  1.87500000E-01
                      -4.37500000E-01  4.37500000E-01  1.87500000E-01
                      -3.12500000E-01  4.37500000E-01  1.87500000E-01
                      -4.37500000E-01 -4.37500000E-01  1.87500000E-01
                      -3.12500000E-01  3.12500000E-01  3.12500000E-01
                      -4.37500000E-01  4.37500000E-01  3.12500000E-01
                      -4.37500000E-01 -4.37500000E-01  3.12500000E-01
                      -4.37500000E-01  4.37500000E-01  4.37500000E-01
          kptrlen      3.75508615E+01
           kptopt           4
         kptrlatt      8  0  0   0  8  0   0  0  8
          kssform1          1
          kssform2          3
P           mkmem          26
            natom           1
            nband1         10
            nband2         20
           nbdbuf1          0
           nbdbuf2         10
           ndtset           2
            ngfft          30      30      30
             nkpt          26
           nspden           2
           nsppol           2
            nstep1        100
            nstep2        300
             nsym          48
           ntypat           1
              occ      1.000000  1.000000  1.000000  1.000000  1.000000  1.000000
                       1.000000  1.000000  1.000000  1.000000
                       1.000000  1.000000  1.000000  1.000000  1.000000  1.000000
                       1.000000  1.000000  1.000000  1.000000
                       1.000000  1.000000  1.000000  1.000000  1.000000  1.000000
                       1.000000  1.000000  1.000000  0.000000
                       1.000000  1.000000  1.000000  1.000000  1.000000  1.000000
                       1.000000  1.000000  1.000000  0.000000
                       1.000000  1.000000  1.000000  1.000000  1.000000  1.000000
                       1.000000  1.000000  1.000000  1.000000
                       1.000000  1.000000  1.000000  1.000000  1.000000  1.000000
                       1.000000  1.000000  1.000000  0.000000
                       1.000000  1.000000  1.000000  1.000000  1.000000  1.000000
                       1.000000  1.000000  1.000000  0.000000
                       1.000000  1.000000  1.000000  1.000000  1.000000  1.000000
                       1.000000  1.000000  1.000000  1.000000
                       1.000000  1.000000  1.000000  1.000000  1.000000  1.000000
                       1.000000  1.000000  1.000000  0.000000
                       1.000000  1.000000  1.000000  1.000000  1.000000  1.000000
                       1.000000  1.000000  1.000000  1.000000
                       1.000000  1.000000  1.000000  1.000000  1.000000  1.000000
                       1.000000  1.000000  1.000000  1.000000
                       1.000000  1.000000  1.000000  1.000000  1.000000  1.000000
                       1.000000  1.000000  0.725232  0.000030
                       1.000000  1.000000  1.000000  1.000000  1.000000  1.000000
                       1.000000  1.000000  1.000000  0.000000
                       1.000000  1.000000  1.000000  1.000000  1.000000  1.000000
                       1.000000  1.000000  0.727788  0.000000
                       1.000000  1.000000  1.000000  1.000000  1.000000  1.000000
                       1.000000  1.000000  0.999999  0.000000
                       1.000000  1.000000  1.000000  1.000000  1.000000  1.000000
                       1.000000  1.000000  1.000000  0.000000
                       1.000000  1.000000  1.000000  1.000000  1.000000  1.000000
                       1.000000  1.000000  1.000000  0.000000
                       1.000000  1.000000  1.000000  1.000000  1.000000  1.000000
                       1.000000  1.000000  1.000000  1.000000
                       1.000000  1.000000  1.000000  1.000000  1.000000  1.000000
                       1.000000  1.000000  1.000000  0.602759
                       1.000000  1.000000  1.000000  1.000000  1.000000  1.000000
                       1.000000  1.000000  0.000011  0.000000
                       1.000000  1.000000  1.000000  1.000000  1.000000  1.000000
                       1.000000  1.000000  0.978258  0.000000
                       1.000000  1.000000  1.000000  1.000000  1.000000  1.000000
                       1.000000  1.000000  0.119151  0.000000
                       1.000000  1.000000  1.000000  1.000000  1.000000  1.000000
                       1.000000  1.000000  1.000000  0.000000
                       1.000000  1.000000  1.000000  1.000000  1.000000  1.000000
                       1.000000  1.000000  0.011802  0.000000
                       1.000000  1.000000  1.000000  1.000000  1.000000  1.000000
                       1.000000  0.193699  0.193699  0.000000
                       1.000000  1.000000  1.000000  1.000000  1.000000  1.000000
                       0.227933  0.227933  0.000112  0.000000
                       1.000000  1.000000  1.000000  1.000000  1.000000  1.000000
                       1.000000  0.540131  0.000000  0.000000
                       1.000000  1.000000  1.000000  1.000000  1.000000  1.000000
                       1.000000  0.000000  0.000000  0.000000
                       1.000000  1.000000  1.000000  1.000000  1.000000  1.000000
                       1.000000  0.000000  0.000000  0.000000
                       1.000000  1.000000  1.000000  1.000000  1.000000  1.000000
                       1.000000  0.000000  0.000000  0.000000
                       1.000000  1.000000  1.000000  1.000000  1.000000  1.000000
                       1.000000  1.000000  0.000000  0.000000
                       1.000000  1.000000  1.000000  1.000000  1.000000  1.000000
                       1.000000  0.000000  0.000000  0.000000
                       1.000000  1.000000  1.000000  1.000000  1.000000  1.000000
                       1.000000  0.000000  0.000000  0.000000
                       1.000000  1.000000  1.000000  1.000000  1.000000  1.000000
                       1.000000  0.219167  0.000000  0.000000
                       1.000000  1.000000  1.000000  1.000000  1.000000  1.000000
                       1.000000  0.000000  0.000000  0.000000
                       1.000000  1.000000  1.000000  1.000000  1.000000  1.000000
                       1.000000  0.000000  0.000000  0.000000
                       1.000000  1.000000  1.000000  1.000000  1.000000  1.000000
                       1.000000  0.000000  0.000000  0.000000
                       1.000000  1.000000  1.000000  1.000000  1.000000  1.000000
                       1.000000  0.000000  0.000000  0.000000
                       1.000000  1.000000  1.000000  1.000000  1.000000  1.000000
                       1.000000  0.000000  0.000000  0.000000
                       1.000000  1.000000  1.000000  1.000000  1.000000  1.000000
                       1.000000  0.000000  0.000000  0.000000
                       1.000000  1.000000  1.000000  1.000000  1.000000  1.000000
                       1.000000  0.000000  0.000000  0.000000
                       1.000000  1.000000  1.000000  1.000000  1.000000  1.000000
                       1.000000  0.000000  0.000000  0.000000
                       1.000000  1.000000  1.000000  1.000000  1.000000  1.000000
                       1.000000  0.000000  0.000000  0.000000
                       1.000000  1.000000  1.000000  1.000000  1.000000  1.000000
                       1.000000  0.998434  0.126415  0.000000
                       1.000000  1.000000  1.000000  1.000000  1.000000  1.000000
                       1.000000  0.076609  0.000000  0.000000
                       1.000000  1.000000  1.000000  1.000000  1.000000  1.000000
                       1.000000  0.000000  0.000000  0.000000
                       1.000000  1.000000  1.000000  1.000000  1.000000  1.000000
                       1.000000  0.000000  0.000000  0.000000
                       1.000000  1.000000  1.000000  1.000000  1.000000  1.000000
                       1.000000  0.000000  0.000000  0.000000
                       1.000000  1.000000  1.000000  1.000000  1.000000  1.000000
                       0.002951  0.002951  0.000000  0.000000
                       1.000000  1.000000  1.000000  1.000000  1.000000  1.000000
                       0.000002  0.000000  0.000000  0.000000
                       1.000000  1.000000  1.000000  1.000000  1.000000  1.000000
                       0.000000  0.000000  0.000000  0.000000
                       1.000000  1.000000  1.000000  1.000000  1.000000  1.000000
                       0.000000  0.000000  0.000000  0.000000
           occopt           7
            rprim     -5.0000000000E-01  5.0000000000E-01  5.0000000000E-01
                       5.0000000000E-01 -5.0000000000E-01  5.0000000000E-01
                       5.0000000000E-01  5.0000000000E-01 -5.0000000000E-01
           shiftk      5.00000000E-01  5.00000000E-01  5.00000000E-01
           so_psp           0
          spgroup         229
           spinat      0.0000000000E+00  0.0000000000E+00  5.0000000000E+00
           strten1     2.6706274605E-02  2.6706274605E-02  2.6706274605E-02
                       0.0000000000E+00  0.0000000000E+00  0.0000000000E+00
        symmorphi1          1
        symmorphi2          0
           symrel      1  0  0   0  1  0   0  0  1      -1  0  0   0 -1  0   0  0 -1
                      -1 -1 -1   0  0  1   0  1  0       1  1  1   0  0 -1   0 -1  0
                       0  1  0   1  0  0  -1 -1 -1       0 -1  0  -1  0  0   1  1  1
                       0  0  1  -1 -1 -1   1  0  0       0  0 -1   1  1  1  -1  0  0
                       0  1  0   1  0  0   0  0  1       0 -1  0  -1  0  0   0  0 -1
                      -1 -1 -1   0  0  1   1  0  0       1  1  1   0  0 -1  -1  0  0
                       1  0  0   0  1  0  -1 -1 -1      -1  0  0   0 -1  0   1  1  1
                       0  0  1  -1 -1 -1   0  1  0       0  0 -1   1  1  1   0 -1  0
                      -1 -1 -1   1  0  0   0  0  1       1  1  1  -1  0  0   0  0 -1
                       0  1  0   0  0  1   1  0  0       0 -1  0   0  0 -1  -1  0  0
                       1  0  0  -1 -1 -1   0  1  0      -1  0  0   1  1  1   0 -1  0
                       0  0  1   0  1  0  -1 -1 -1       0  0 -1   0 -1  0   1  1  1
                       1  0  0  -1 -1 -1   0  0  1      -1  0  0   1  1  1   0  0 -1
                       0  1  0   0  0  1  -1 -1 -1       0 -1  0   0  0 -1   1  1  1
                      -1 -1 -1   1  0  0   0  1  0       1  1  1  -1  0  0   0 -1  0
                       0  0  1   0  1  0   1  0  0       0  0 -1   0 -1  0  -1  0  0
                       0  1  0  -1 -1 -1   0  0  1       0 -1  0   1  1  1   0  0 -1
                       1  0  0   0  0  1  -1 -1 -1      -1  0  0   0  0 -1   1  1  1
                      -1 -1 -1   0  1  0   1  0  0       1  1  1   0 -1  0  -1  0  0
                       0  0  1   1  0  0   0  1  0       0  0 -1  -1  0  0   0 -1  0
                      -1 -1 -1   0  1  0   0  0  1       1  1  1   0 -1  0   0  0 -1
                       1  0  0   0  0  1   0  1  0      -1  0  0   0  0 -1   0 -1  0
                       0  1  0  -1 -1 -1   1  0  0       0 -1  0   1  1  1  -1  0  0
                       0  0  1   1  0  0  -1 -1 -1       0  0 -1  -1  0  0   1  1  1
           toldfe1     1.00000000E-08 Hartree
           toldfe2     0.00000000E+00 Hartree
           tolwfr1     0.00000000E+00
           tolwfr2     1.00000000E-10
           tsmear      5.00000000E-03 Hartree
            typat      1
              wtk        0.01563    0.04688    0.04688    0.02344    0.01172    0.04688
                         0.09375    0.04688    0.01563    0.04688    0.04688    0.04688
                         0.09375    0.04688    0.04688    0.01563    0.02344    0.01172
                         0.04688    0.04688    0.04688    0.04688    0.01172    0.04688
                         0.01563    0.01172
            znucl       26.00000

================================================================================

- Total cpu        time (s,m,h):        207.1        3.45      0.058
- Total wall clock time (s,m,h):        207.9        3.46      0.058

- For major independent code sections, cpu and wall times (sec),
- as well as % of the total time and number of calls 

- routine                         cpu     %       wall     %      number of calls 
-                                                                  (-1=no count)
- fourwf%(pot)                 119.435  57.7    120.210  57.8          63403
- projbd                        25.518  12.3     25.595  12.3          99766
- nonlop(apply)                 20.489   9.9     20.281   9.8          63403
- fourwf%(den)                   6.040   2.9      6.085   2.9           6085
- vtowfk(ssdiag)                 5.356   2.6      5.317   2.6             -1
- getghc-other                   3.468   1.7      3.450   1.7             -1
- 75   others                    2.980   1.4      3.017   1.5

- subtotal                     183.288  88.5    183.955  88.5

================================================================================

 Suggested references for the acknowledgment of ABINIT usage.

 The users of ABINIT have little formal obligations with respect to the ABINIT group
 (those specified in the GNU General Public License, http://www.gnu.org/copyleft/gpl.txt).
 However, it is common practice in the scientific literature,
 to acknowledge the efforts of people that have made the research possible.
 In this spirit, please find below suggested citations of work written by ABINIT developers,
 corresponding to implementations inside of ABINIT that you have used in the present run.
 Note also that it will be of great value to readers of publications presenting these results,
 to read papers enabling them to understand the theoretical formalism and details
 of the ABINIT implementation.
 For information on why they are suggested, see also http://www.abinit.org/about/?text=acknowledgments.

 [1] ABINIT : First-principles approach of materials and nanosystem properties.
 X. Gonze, B. Amadon, P.-M. Anglade, J.-M. Beuken, F. Bottin, P. Boulanger, F. Bruneval,
 D. Caliste, R. Caracas, M. Cote, T. Deutsch, L. Genovese, Ph. Ghosez, M. Giantomassi
 S. Goedecker, D.R. Hamann, P. Hermet, F. Jollet, G. Jomard, S. Leroux, M. Mancini, S. Mazevet,
 M.J.T. Oliveira, G. Onida, Y. Pouillon, T. Rangel, G.-M. Rignanese, D. Sangalli, R. Shaltaf,
 M. Torrent, M.J. Verstraete, G. Zerah, J.W. Zwanziger
 Computer Phys. Comm. 180, 2582-2615 (2009).
 Comment : the third generic paper describing the ABINIT project.
 Note that a version of this paper, that is not formatted for Computer Phys. Comm. 
 is available at http://www.abinit.org/about/ABINIT_CPC_v10.pdf .
 The licence allows the authors to put it on the Web.

 [2] A brief introduction to the ABINIT software package.
 X. Gonze, G.-M. Rignanese, M. Verstraete, J.-M. Beuken, Y. Pouillon, R. Caracas, F. Jollet,
 M. Torrent, G. Zerah, M. Mikami, Ph. Ghosez, M. Veithen, J.-Y. Raty, V. Olevano, F. Bruneval,
 L. Reining, R. Godby, G. Onida, D.R. Hamann, and D.C. Allan.
 Z. Kristallogr. 220, 558-562 (2005).
 Comment : the second generic paper describing the ABINIT project. Note that this paper
 should be cited especially if you are using the GW part of ABINIT, as several authors
 of this part are not in the list of authors of the first or third paper.
 The .pdf of the latter paper is available at http://www.abinit.org/about/zfk_0505-06_558-562.pdf.
 Note that it should not redistributed (Copyright by Oldenburg Wissenshaftverlag,
 the licence allows the authors to put it on the Web).


 And optionally :

 [3] First-principles computation of material properties : the ABINIT software project. 
 X. Gonze, J.-M. Beuken, R. Caracas, F. Detraux, M. Fuchs, G.-M. Rignanese, L. Sindic,
 M. Verstraete, G. Zerah, F. Jollet, M. Torrent, A. Roy, M. Mikami, Ph. Ghosez, J.-Y. Raty, D.C. Allan.
 Computational Materials Science 25, 478-492 (2002). http://dx.doi.org/10.1016/S0927-0256(02)00325-7
 Comment : the original paper describing the ABINIT project.

 [4] Fast radix 2, 3, 4 and 5 kernels for Fast Fourier Transformations
 on computers with overlapping multiply-add instructions.
 S. Goedecker, SIAM J. on Scientific Computing 18, 1605 (1997).

================================================================================

 Calculation completed.
.Delivered    9 WARNINGs and   6 COMMENTs to log file.
+Overall time at end (sec) : cpu=        207.2  wall=        207.9
