
.Version 6.12.3 of ABINIT 
.(sequential version, prepared for a x86_64_linux_gnu4.7 computer) 

.Copyright (C) 1998-2012 ABINIT group . 
 ABINIT comes with ABSOLUTELY NO WARRANTY.
 It is free software, and you are welcome to redistribute it
 under certain conditions (GNU General Public License,
 see ~abinit/COPYING or http://www.gnu.org/copyleft/gpl.txt).

 ABINIT is a project of the Universite Catholique de Louvain,
 Corning Inc. and other collaborators, see ~abinit/doc/developers/contributors.txt .
 Please read ~abinit/doc/users/acknowledgments.html for suggested
 acknowledgments of the ABINIT effort.
 For more information, see http://www.abinit.org .

.Starting date : Wed 27 Mar 2013.
- ( at 18h26 )
  
- input  file    -> Fe_withSO.in
- output file    -> Fe_e50_k8_withSO.out
- root for input  files -> Fe_e50_k8_withSO.i
- root for output files -> Fe_e50_k8_withSO.o


 DATASET    1 : space group I4 (# 79); Bravais tI (body-center tetrag.)
================================================================================
 Values of the parameters that define the memory need for DATASET  1.
   intxc =         0  ionmov =         0    iscf =         7 xclevel =         1
  lmnmax =         8   lnmax =         8   mband =        20  mffmem =         1
P  mgfft =        30   mkmem =       136 mpssoang=         5     mpw =      1365
  mqgrid =      3001   natom =         1    nfft =     27000    nkpt =       136
  nloalg =         4  nspden =         4 nspinor =         2  nsppol =         1
    nsym =         4  n1xccc =         0  ntypat =         1  occopt =         7
================================================================================
P This job should need less than                     138.551 Mbytes of memory.
  Rough estimation (10% accuracy) of disk space for files :
  WF disk file :     56.655 Mbytes ; DEN or POT disk file :      0.208 Mbytes.
================================================================================


 DATASET    2 : space group I4 (# 79); Bravais tI (body-center tetrag.)
================================================================================
 Values of the parameters that define the memory need for DATASET  2.
   intxc =         0  ionmov =         0    iscf =        -2 xclevel =         1
  lmnmax =         8   lnmax =         8   mband =        34  mffmem =         1
P  mgfft =        30   mkmem =       136 mpssoang=         5     mpw =      1365
  mqgrid =      3001   natom =         1    nfft =     27000    nkpt =       136
  nloalg =         4  nspden =         4 nspinor =         2  nsppol =         1
    nsym =         4  n1xccc =         0  ntypat =         1  occopt =         7
================================================================================
P This job should need less than                     203.939 Mbytes of memory.
  Rough estimation (10% accuracy) of disk space for files :
  WF disk file :     96.312 Mbytes ; DEN or POT disk file :      0.208 Mbytes.
================================================================================

--------------------------------------------------------------------------------
------------- Echo of variables that govern the present computation ------------
--------------------------------------------------------------------------------
-
- outvars: echo of selected default values                                      
-   accesswff0 =  0 , fftalg0 =112 , wfoptalg0 =  0
-
- outvars: echo of global parameters not present in the input file              
-   nproc =    1
-
 -outvars: echo values of preprocessed input variables --------
            acell      5.4200000000E+00  5.4200000000E+00  5.4200000000E+00 Bohr
              amu      5.58470000E+01
             ecut      5.00000000E+01 Hartree
           enunit           1
           getden1          0
           getden2          1
             iscf1          7
             iscf2         -2
           jdtset        1    2
              kpt      6.25000000E-02  6.25000000E-02  6.25000000E-02
                       1.87500000E-01  6.25000000E-02  6.25000000E-02
                       3.12500000E-01  6.25000000E-02  6.25000000E-02
                       4.37500000E-01  6.25000000E-02  6.25000000E-02
                      -4.37500000E-01  6.25000000E-02  6.25000000E-02
                      -3.12500000E-01  6.25000000E-02  6.25000000E-02
                      -1.87500000E-01  6.25000000E-02  6.25000000E-02
                      -6.25000000E-02  6.25000000E-02  6.25000000E-02
                       6.25000000E-02  1.87500000E-01  6.25000000E-02
                       1.87500000E-01  1.87500000E-01  6.25000000E-02
                       3.12500000E-01  1.87500000E-01  6.25000000E-02
                       4.37500000E-01  1.87500000E-01  6.25000000E-02
                      -4.37500000E-01  1.87500000E-01  6.25000000E-02
                      -3.12500000E-01  1.87500000E-01  6.25000000E-02
                      -1.87500000E-01  1.87500000E-01  6.25000000E-02
                      -6.25000000E-02  1.87500000E-01  6.25000000E-02
                       6.25000000E-02  3.12500000E-01  6.25000000E-02
                       1.87500000E-01  3.12500000E-01  6.25000000E-02
                       3.12500000E-01  3.12500000E-01  6.25000000E-02
                       4.37500000E-01  3.12500000E-01  6.25000000E-02
                      -4.37500000E-01  3.12500000E-01  6.25000000E-02
                      -3.12500000E-01  3.12500000E-01  6.25000000E-02
                      -1.87500000E-01  3.12500000E-01  6.25000000E-02
                      -6.25000000E-02  3.12500000E-01  6.25000000E-02
                       6.25000000E-02  4.37500000E-01  6.25000000E-02
                       1.87500000E-01  4.37500000E-01  6.25000000E-02
                       3.12500000E-01  4.37500000E-01  6.25000000E-02
                       4.37500000E-01  4.37500000E-01  6.25000000E-02
                      -4.37500000E-01  4.37500000E-01  6.25000000E-02
                      -3.12500000E-01  4.37500000E-01  6.25000000E-02
                      -1.87500000E-01  4.37500000E-01  6.25000000E-02
                      -6.25000000E-02  4.37500000E-01  6.25000000E-02
                       6.25000000E-02 -4.37500000E-01  6.25000000E-02
                       1.87500000E-01 -4.37500000E-01  6.25000000E-02
                       4.37500000E-01 -4.37500000E-01  6.25000000E-02
                      -4.37500000E-01 -4.37500000E-01  6.25000000E-02
                      -3.12500000E-01 -4.37500000E-01  6.25000000E-02
                      -1.87500000E-01 -4.37500000E-01  6.25000000E-02
                      -6.25000000E-02 -4.37500000E-01  6.25000000E-02
                       6.25000000E-02 -3.12500000E-01  6.25000000E-02
                       3.12500000E-01 -3.12500000E-01  6.25000000E-02
                       4.37500000E-01 -3.12500000E-01  6.25000000E-02
                      -4.37500000E-01 -3.12500000E-01  6.25000000E-02
                      -3.12500000E-01 -3.12500000E-01  6.25000000E-02
                      -1.87500000E-01 -3.12500000E-01  6.25000000E-02
                      -6.25000000E-02 -3.12500000E-01  6.25000000E-02
                       1.87500000E-01 -1.87500000E-01  6.25000000E-02
                       3.12500000E-01 -1.87500000E-01  6.25000000E-02
                       4.37500000E-01 -1.87500000E-01  6.25000000E-02
                      -4.37500000E-01 -1.87500000E-01  6.25000000E-02
                       outvar1 : Printing only first  50 k-points.
          kptrlen      3.75508615E+01
           kptopt           4
         kptrlatt      8  0  0   0  8  0   0  0  8
          kssform1          1
          kssform2          3
P           mkmem         136
            natom           1
            nband1         20
            nband2         34
           nbdbuf1          0
           nbdbuf2         10
           ndtset           2
            ngfft          30      30      30
             nkpt         136
           nspden           4
          nspinor           2
            nstep1        100
            nstep2        300
             nsym           4
           ntypat           1
              occ      1.000000  1.000000  1.000000  1.000000  1.000000  1.000000
                       1.000000  1.000000  1.000000  1.000000  1.000000  1.000000
                       1.000000  1.000000  1.000000  1.000000  0.000000  0.000000
                       0.000000  0.000000
                       1.000000  1.000000  1.000000  1.000000  1.000000  1.000000
                       1.000000  1.000000  1.000000  1.000000  1.000000  1.000000
                       1.000000  1.000000  1.000000  1.000000  0.000000  0.000000
                       0.000000  0.000000
                       1.000000  1.000000  1.000000  1.000000  1.000000  1.000000
                       1.000000  1.000000  1.000000  1.000000  1.000000  1.000000
                       1.000000  1.000000  1.000000  1.000000  0.000000  0.000000
                       0.000000  0.000000
                       1.000000  1.000000  1.000000  1.000000  1.000000  1.000000
                       1.000000  1.000000  1.000000  1.000000  1.000000  1.000000
                       1.000000  1.000000  1.000000  1.000000  0.000000  0.000000
                       0.000000  0.000000
                       1.000000  1.000000  1.000000  1.000000  1.000000  1.000000
                       1.000000  1.000000  1.000000  1.000000  1.000000  1.000000
                       1.000000  1.000000  1.000000  1.000000  0.000000  0.000000
                       0.000000  0.000000
                       1.000000  1.000000  1.000000  1.000000  1.000000  1.000000
                       1.000000  1.000000  1.000000  1.000000  1.000000  1.000000
                       1.000000  1.000000  1.000000  1.000000  0.000000  0.000000
                       0.000000  0.000000
                       1.000000  1.000000  1.000000  1.000000  1.000000  1.000000
                       1.000000  1.000000  1.000000  1.000000  1.000000  1.000000
                       1.000000  1.000000  1.000000  1.000000  0.000000  0.000000
                       0.000000  0.000000
                       1.000000  1.000000  1.000000  1.000000  1.000000  1.000000
                       1.000000  1.000000  1.000000  1.000000  1.000000  1.000000
                       1.000000  1.000000  1.000000  1.000000  0.000000  0.000000
                       0.000000  0.000000
                       1.000000  1.000000  1.000000  1.000000  1.000000  1.000000
                       1.000000  1.000000  1.000000  1.000000  1.000000  1.000000
                       1.000000  1.000000  1.000000  1.000000  0.000000  0.000000
                       0.000000  0.000000
                       1.000000  1.000000  1.000000  1.000000  1.000000  1.000000
                       1.000000  1.000000  1.000000  1.000000  1.000000  1.000000
                       1.000000  1.000000  1.000000  1.000000  0.000000  0.000000
                       0.000000  0.000000
                       1.000000  1.000000  1.000000  1.000000  1.000000  1.000000
                       1.000000  1.000000  1.000000  1.000000  1.000000  1.000000
                       1.000000  1.000000  1.000000  1.000000  0.000000  0.000000
                       0.000000  0.000000
                       1.000000  1.000000  1.000000  1.000000  1.000000  1.000000
                       1.000000  1.000000  1.000000  1.000000  1.000000  1.000000
                       1.000000  1.000000  1.000000  1.000000  0.000000  0.000000
                       0.000000  0.000000
                       1.000000  1.000000  1.000000  1.000000  1.000000  1.000000
                       1.000000  1.000000  1.000000  1.000000  1.000000  1.000000
                       1.000000  1.000000  1.000000  1.000000  0.000000  0.000000
                       0.000000  0.000000
                       1.000000  1.000000  1.000000  1.000000  1.000000  1.000000
                       1.000000  1.000000  1.000000  1.000000  1.000000  1.000000
                       1.000000  1.000000  1.000000  1.000000  0.000000  0.000000
                       0.000000  0.000000
                       1.000000  1.000000  1.000000  1.000000  1.000000  1.000000
                       1.000000  1.000000  1.000000  1.000000  1.000000  1.000000
                       1.000000  1.000000  1.000000  1.000000  0.000000  0.000000
                       0.000000  0.000000
                       1.000000  1.000000  1.000000  1.000000  1.000000  1.000000
                       1.000000  1.000000  1.000000  1.000000  1.000000  1.000000
                       1.000000  1.000000  1.000000  1.000000  0.000000  0.000000
                       0.000000  0.000000
                       1.000000  1.000000  1.000000  1.000000  1.000000  1.000000
                       1.000000  1.000000  1.000000  1.000000  1.000000  1.000000
                       1.000000  1.000000  1.000000  1.000000  0.000000  0.000000
                       0.000000  0.000000
                       1.000000  1.000000  1.000000  1.000000  1.000000  1.000000
                       1.000000  1.000000  1.000000  1.000000  1.000000  1.000000
                       1.000000  1.000000  1.000000  1.000000  0.000000  0.000000
                       0.000000  0.000000
                       1.000000  1.000000  1.000000  1.000000  1.000000  1.000000
                       1.000000  1.000000  1.000000  1.000000  1.000000  1.000000
                       1.000000  1.000000  1.000000  1.000000  0.000000  0.000000
                       0.000000  0.000000
                       1.000000  1.000000  1.000000  1.000000  1.000000  1.000000
                       1.000000  1.000000  1.000000  1.000000  1.000000  1.000000
                       1.000000  1.000000  1.000000  1.000000  0.000000  0.000000
                       0.000000  0.000000
                       1.000000  1.000000  1.000000  1.000000  1.000000  1.000000
                       1.000000  1.000000  1.000000  1.000000  1.000000  1.000000
                       1.000000  1.000000  1.000000  1.000000  0.000000  0.000000
                       0.000000  0.000000
                       1.000000  1.000000  1.000000  1.000000  1.000000  1.000000
                       1.000000  1.000000  1.000000  1.000000  1.000000  1.000000
                       1.000000  1.000000  1.000000  1.000000  0.000000  0.000000
                       0.000000  0.000000
                       1.000000  1.000000  1.000000  1.000000  1.000000  1.000000
                       1.000000  1.000000  1.000000  1.000000  1.000000  1.000000
                       1.000000  1.000000  1.000000  1.000000  0.000000  0.000000
                       0.000000  0.000000
                       1.000000  1.000000  1.000000  1.000000  1.000000  1.000000
                       1.000000  1.000000  1.000000  1.000000  1.000000  1.000000
                       1.000000  1.000000  1.000000  1.000000  0.000000  0.000000
                       0.000000  0.000000
                       1.000000  1.000000  1.000000  1.000000  1.000000  1.000000
                       1.000000  1.000000  1.000000  1.000000  1.000000  1.000000
                       1.000000  1.000000  1.000000  1.000000  0.000000  0.000000
                       0.000000  0.000000
                       1.000000  1.000000  1.000000  1.000000  1.000000  1.000000
                       1.000000  1.000000  1.000000  1.000000  1.000000  1.000000
                       1.000000  1.000000  1.000000  1.000000  0.000000  0.000000
                       0.000000  0.000000
                       1.000000  1.000000  1.000000  1.000000  1.000000  1.000000
                       1.000000  1.000000  1.000000  1.000000  1.000000  1.000000
                       1.000000  1.000000  1.000000  1.000000  0.000000  0.000000
                       0.000000  0.000000
                       1.000000  1.000000  1.000000  1.000000  1.000000  1.000000
                       1.000000  1.000000  1.000000  1.000000  1.000000  1.000000
                       1.000000  1.000000  1.000000  1.000000  0.000000  0.000000
                       0.000000  0.000000
                       1.000000  1.000000  1.000000  1.000000  1.000000  1.000000
                       1.000000  1.000000  1.000000  1.000000  1.000000  1.000000
                       1.000000  1.000000  1.000000  1.000000  0.000000  0.000000
                       0.000000  0.000000
                       1.000000  1.000000  1.000000  1.000000  1.000000  1.000000
                       1.000000  1.000000  1.000000  1.000000  1.000000  1.000000
                       1.000000  1.000000  1.000000  1.000000  0.000000  0.000000
                       0.000000  0.000000
                       1.000000  1.000000  1.000000  1.000000  1.000000  1.000000
                       1.000000  1.000000  1.000000  1.000000  1.000000  1.000000
                       1.000000  1.000000  1.000000  1.000000  0.000000  0.000000
                       0.000000  0.000000
                       1.000000  1.000000  1.000000  1.000000  1.000000  1.000000
                       1.000000  1.000000  1.000000  1.000000  1.000000  1.000000
                       1.000000  1.000000  1.000000  1.000000  0.000000  0.000000
                       0.000000  0.000000
                       1.000000  1.000000  1.000000  1.000000  1.000000  1.000000
                       1.000000  1.000000  1.000000  1.000000  1.000000  1.000000
                       1.000000  1.000000  1.000000  1.000000  0.000000  0.000000
                       0.000000  0.000000
                       1.000000  1.000000  1.000000  1.000000  1.000000  1.000000
                       1.000000  1.000000  1.000000  1.000000  1.000000  1.000000
                       1.000000  1.000000  1.000000  1.000000  0.000000  0.000000
                       0.000000  0.000000
                       1.000000  1.000000  1.000000  1.000000  1.000000  1.000000
                       1.000000  1.000000  1.000000  1.000000  1.000000  1.000000
                       1.000000  1.000000  1.000000  1.000000  0.000000  0.000000
                       0.000000  0.000000
                       1.000000  1.000000  1.000000  1.000000  1.000000  1.000000
                       1.000000  1.000000  1.000000  1.000000  1.000000  1.000000
                       1.000000  1.000000  1.000000  1.000000  0.000000  0.000000
                       0.000000  0.000000
                       1.000000  1.000000  1.000000  1.000000  1.000000  1.000000
                       1.000000  1.000000  1.000000  1.000000  1.000000  1.000000
                       1.000000  1.000000  1.000000  1.000000  0.000000  0.000000
                       0.000000  0.000000
                       1.000000  1.000000  1.000000  1.000000  1.000000  1.000000
                       1.000000  1.000000  1.000000  1.000000  1.000000  1.000000
                       1.000000  1.000000  1.000000  1.000000  0.000000  0.000000
                       0.000000  0.000000
                       1.000000  1.000000  1.000000  1.000000  1.000000  1.000000
                       1.000000  1.000000  1.000000  1.000000  1.000000  1.000000
                       1.000000  1.000000  1.000000  1.000000  0.000000  0.000000
                       0.000000  0.000000
                       1.000000  1.000000  1.000000  1.000000  1.000000  1.000000
                       1.000000  1.000000  1.000000  1.000000  1.000000  1.000000
                       1.000000  1.000000  1.000000  1.000000  0.000000  0.000000
                       0.000000  0.000000
                       1.000000  1.000000  1.000000  1.000000  1.000000  1.000000
                       1.000000  1.000000  1.000000  1.000000  1.000000  1.000000
                       1.000000  1.000000  1.000000  1.000000  0.000000  0.000000
                       0.000000  0.000000
                       1.000000  1.000000  1.000000  1.000000  1.000000  1.000000
                       1.000000  1.000000  1.000000  1.000000  1.000000  1.000000
                       1.000000  1.000000  1.000000  1.000000  0.000000  0.000000
                       0.000000  0.000000
                       1.000000  1.000000  1.000000  1.000000  1.000000  1.000000
                       1.000000  1.000000  1.000000  1.000000  1.000000  1.000000
                       1.000000  1.000000  1.000000  1.000000  0.000000  0.000000
                       0.000000  0.000000
                       1.000000  1.000000  1.000000  1.000000  1.000000  1.000000
                       1.000000  1.000000  1.000000  1.000000  1.000000  1.000000
                       1.000000  1.000000  1.000000  1.000000  0.000000  0.000000
                       0.000000  0.000000
                       1.000000  1.000000  1.000000  1.000000  1.000000  1.000000
                       1.000000  1.000000  1.000000  1.000000  1.000000  1.000000
                       1.000000  1.000000  1.000000  1.000000  0.000000  0.000000
                       0.000000  0.000000
                       1.000000  1.000000  1.000000  1.000000  1.000000  1.000000
                       1.000000  1.000000  1.000000  1.000000  1.000000  1.000000
                       1.000000  1.000000  1.000000  1.000000  0.000000  0.000000
                       0.000000  0.000000
                       1.000000  1.000000  1.000000  1.000000  1.000000  1.000000
                       1.000000  1.000000  1.000000  1.000000  1.000000  1.000000
                       1.000000  1.000000  1.000000  1.000000  0.000000  0.000000
                       0.000000  0.000000
                       1.000000  1.000000  1.000000  1.000000  1.000000  1.000000
                       1.000000  1.000000  1.000000  1.000000  1.000000  1.000000
                       1.000000  1.000000  1.000000  1.000000  0.000000  0.000000
                       0.000000  0.000000
                       1.000000  1.000000  1.000000  1.000000  1.000000  1.000000
                       1.000000  1.000000  1.000000  1.000000  1.000000  1.000000
                       1.000000  1.000000  1.000000  1.000000  0.000000  0.000000
                       0.000000  0.000000
                       1.000000  1.000000  1.000000  1.000000  1.000000  1.000000
                       1.000000  1.000000  1.000000  1.000000  1.000000  1.000000
                       1.000000  1.000000  1.000000  1.000000  0.000000  0.000000
                       0.000000  0.000000
                       prtocc : prtvol=0, do not print more k-points.
           occopt           7
            rprim     -5.0000000000E-01  5.0000000000E-01  5.0000000000E-01
                       5.0000000000E-01 -5.0000000000E-01  5.0000000000E-01
                       5.0000000000E-01  5.0000000000E-01 -5.0000000000E-01
           shiftk      5.00000000E-01  5.00000000E-01  5.00000000E-01
          spgroup          79
           spinat      0.0000000000E+00  0.0000000000E+00  5.0000000000E+00
        symmorphi1          1
        symmorphi2          0
           symrel      1  0  0   0  1  0   0  0  1       0  1  0   1  0  0  -1 -1 -1
                       1  1  1   0  0 -1  -1  0  0       0  0 -1   1  1  1   0 -1  0
           toldfe1     1.00000000E-08 Hartree
           toldfe2     0.00000000E+00 Hartree
           tolwfr1     0.00000000E+00
           tolwfr2     1.00000000E-10
           tsmear      1.00000000E-02 Hartree
            typat      1
              wtk        0.00781    0.00781    0.00781    0.00781    0.00781    0.00781
                         0.00781    0.00781    0.00781    0.00781    0.00781    0.00781
                         0.00781    0.00781    0.00781    0.00781    0.00781    0.00781
                         0.00781    0.00781    0.00781    0.00781    0.00781    0.00781
                         0.00781    0.00781    0.00781    0.00391    0.00781    0.00781
                         0.00781    0.00781    0.00781    0.00781    0.00781    0.00781
                         0.00781    0.00781    0.00781    0.00781    0.00781    0.00781
                         0.00781    0.00781    0.00781    0.00781    0.00781    0.00781
                         0.00781    0.00781
                       outvars : Printing only first  50 k-points.
            znucl       26.00000

================================================================================

 chkinp: Checking input parameters for consistency, jdtset=   1.

 chkinp: Checking input parameters for consistency, jdtset=   2.

================================================================================
== DATASET  1 ==================================================================

 Exchange-correlation functional for the present dataset will be:
  LDA: new Teter (4/93) with spin-polarized option - ixc=1
 Citation for XC functional:
  S. Goedecker, M. Teter, J. Huetter, PRB 54, 1703 (1996)

 Real(R)+Recip(G) space primitive vectors, cartesian coordinates (Bohr,Bohr^-1):
 R(1)= -2.7100000  2.7100000  2.7100000  G(1)=  0.0000000  0.1845018  0.1845018
 R(2)=  2.7100000 -2.7100000  2.7100000  G(2)=  0.1845018  0.0000000  0.1845018
 R(3)=  2.7100000  2.7100000 -2.7100000  G(3)=  0.1845018  0.1845018  0.0000000
 Unit cell volume ucvol=  7.9610044E+01 bohr^3
 Angles (23,13,12)=  1.09471221E+02  1.09471221E+02  1.09471221E+02 degrees

 getcut: wavevector=  0.0000  0.0000  0.0000  ngfft=  30  30  30
         ecut(hartree)=     50.000   => boxcut(ratio)=   2.00790

--- Pseudopotential description ------------------------------------------------
- pspini: atom type   1  psp file is 26fe.16.hgh
- pspatm: opening atomic psp file    26fe.16.hgh
 Hartwigsen-Goedecker-Hutter psp for Fe,  from PRB58, 3641 (1998)
- 26.00000  16.00000     10605                znucl, zion, pspdat
    3    1    2    0      2001   0.00000      pspcod,pspxc,lmax,lloc,mmax,r2well
 rloc=   0.3600000
 cc1 =   5.3925070; cc2 =  -0.0300660; cc3 =   0.0000000; cc4 =   0.0000000
 rrs =   0.2692680; h11s=  10.1937230; h22s=  -6.8349820; h33s=   0.0000000
 rrp =   0.2476860; h11p=   0.1456130; h22p=  -5.2349540; h33p=   0.0000000
                    k11p=   0.2014500; k22p=  -0.0758290; k33p=   0.0000000
 rrd =   0.2230210; h11d= -12.0269410; h22d=   0.0000000; h33d=   0.0000000
                    k11d=   0.0103220; k22d=   0.0000000; k33d=   0.0000000
-  Local part computed in reciprocal space.

 pspatm : COMMENT -
  the projectors are not normalized,
  so that the KB energies are not consistent with 
  definition in PRB44, 8503 (1991). 
  However, this does not influence the results obtained hereafter.
 pspatm: epsatm=   16.92502289
         --- l  ekb(1:nproj) -->
             0   -0.500862    0.733315
             1   -0.039838    0.006202
             2   -0.004680
  spin-orbit 1   -0.000525    0.001356
  spin-orbit 2    0.000004
 pspatm: atomic psp has been read  and splines computed

   2.70800366E+02                                ecore*ucvol(ha*bohr**3)
--------------------------------------------------------------------------------

P newkpt: treating     20 bands with npw=    1355 for ikpt=   1
P newkpt: treating     20 bands with npw=    1351 for ikpt=   2
P newkpt: treating     20 bands with npw=    1339 for ikpt=   3
P newkpt: treating     20 bands with npw=    1342 for ikpt=   4
P newkpt: treating     20 bands with npw=    1339 for ikpt=   5
P newkpt: treating     20 bands with npw=    1351 for ikpt=   6
P newkpt: treating     20 bands with npw=    1355 for ikpt=   7
P newkpt: treating     20 bands with npw=    1361 for ikpt=   8
P newkpt: treating     20 bands with npw=    1351 for ikpt=   9
P newkpt: treating     20 bands with npw=    1346 for ikpt=  10
P newkpt: treating     20 bands with npw=    1337 for ikpt=  11
P newkpt: treating     20 bands with npw=    1337 for ikpt=  12
P newkpt: treating     20 bands with npw=    1346 for ikpt=  13
P newkpt: treating     20 bands with npw=    1351 for ikpt=  14
P newkpt: treating     20 bands with npw=    1360 for ikpt=  15
P newkpt: treating     20 bands with npw=    1360 for ikpt=  16
P newkpt: treating     20 bands with npw=    1339 for ikpt=  17
P newkpt: treating     20 bands with npw=    1337 for ikpt=  18
P newkpt: treating     20 bands with npw=    1337 for ikpt=  19
P newkpt: treating     20 bands with npw=    1337 for ikpt=  20
P newkpt: treating     20 bands with npw=    1339 for ikpt=  21
P newkpt: treating     20 bands with npw=    1345 for ikpt=  22
P newkpt: treating     20 bands with npw=    1348 for ikpt=  23
P newkpt: treating     20 bands with npw=    1345 for ikpt=  24
P newkpt: treating     20 bands with npw=    1342 for ikpt=  25
P newkpt: treating     20 bands with npw=    1337 for ikpt=  26
P newkpt: treating     20 bands with npw=    1337 for ikpt=  27
P newkpt: treating     20 bands with npw=    1342 for ikpt=  28
P newkpt: treating     20 bands with npw=    1347 for ikpt=  29
P newkpt: treating     20 bands with npw=    1347 for ikpt=  30
P newkpt: treating     20 bands with npw=    1347 for ikpt=  31
P newkpt: treating     20 bands with npw=    1347 for ikpt=  32
P newkpt: treating     20 bands with npw=    1339 for ikpt=  33
P newkpt: treating     20 bands with npw=    1346 for ikpt=  34
P newkpt: treating     20 bands with npw=    1347 for ikpt=  35
P newkpt: treating     20 bands with npw=    1345 for ikpt=  36
P newkpt: treating     20 bands with npw=    1337 for ikpt=  37
P newkpt: treating     20 bands with npw=    1345 for ikpt=  38
P newkpt: treating     20 bands with npw=    1347 for ikpt=  39
P newkpt: treating     20 bands with npw=    1351 for ikpt=  40
P newkpt: treating     20 bands with npw=    1345 for ikpt=  41
P newkpt: treating     20 bands with npw=    1347 for ikpt=  42
P newkpt: treating     20 bands with npw=    1337 for ikpt=  43
P newkpt: treating     20 bands with npw=    1337 for ikpt=  44
P newkpt: treating     20 bands with npw=    1347 for ikpt=  45
P newkpt: treating     20 bands with npw=    1345 for ikpt=  46
P newkpt: treating     20 bands with npw=    1360 for ikpt=  47
P newkpt: treating     20 bands with npw=    1348 for ikpt=  48
P newkpt: treating     20 bands with npw=    1347 for ikpt=  49
P newkpt: treating     20 bands with npw=    1345 for ikpt=  50
  newkpt: prtvol=0 or 1, do not print more k-points.

 setup2: Arith. and geom. avg. npw (full set) are    1343.973    1343.953

================================================================================

     iter   Etot(hartree)      deltaE(h)  residm     vres2
 ETOT  1  -111.08679436073    -1.111E+02 3.334E+00 8.525E+04
 ETOT  2  -112.49563900422    -1.409E+00 5.122E-01 7.641E+04
 ETOT  3  -122.44970617528    -9.954E+00 7.707E-01 5.523E+02
 ETOT  4  -122.63218436500    -1.825E-01 2.728E-01 4.859E+02
 ETOT  5  -122.68237883079    -5.019E-02 7.776E-02 4.152E+01
 ETOT  6  -122.68673146812    -4.353E-03 6.073E-02 1.709E+01
 ETOT  7  -122.68803726331    -1.306E-03 2.094E-02 2.652E+00
 ETOT  8  -122.68858663187    -5.494E-04 1.212E-02 1.038E-01
 ETOT  9  -122.68859943549    -1.280E-05 1.796E-02 3.077E-02
 ETOT 10  -122.68860260785    -3.172E-06 3.772E-03 8.145E-03
 ETOT 11  -122.68860356970    -9.618E-07 5.339E-03 1.733E-03
 ETOT 12  -122.68860381439    -2.447E-07 1.966E-03 2.289E-06
 ETOT 13  -122.68860381515    -7.548E-10 1.332E-03 1.720E-07
 ETOT 14  -122.68860381524    -9.385E-11 8.294E-04 1.771E-08

 At SCF step   14, etot is converged : 
  for the second time, diff in etot=  9.385E-11 < toldfe=  1.000E-08

 Cartesian components of stress tensor (hartree/bohr^3)
  sigma(1 1)=  2.67239781E-02  sigma(3 2)=  0.00000000E+00
  sigma(2 2)=  2.67239781E-02  sigma(3 1)=  0.00000000E+00
  sigma(3 3)=  2.67231605E-02  sigma(2 1)=  0.00000000E+00

================================================================================

 ----iterations are completed or convergence reached----

 Mean square residual over all n,k,spin=   9.2769E-07; max=  8.2937E-04
   0.0625  0.0625  0.0625    1  2.45672E-12 kpt; spin; max resid(k); each band:
  6.46E-14 1.04E-12 1.36E-12 2.37E-12 1.55E-14 2.46E-12 1.46E-12 1.15E-13
  4.82E-14 1.22E-12 2.90E-14 3.08E-14 4.70E-14 5.18E-13 1.73E-13 5.59E-13
  4.40E-13 2.42E-13 3.77E-13 3.74E-13
   0.1875  0.0625  0.0625    1  2.59008E-12 kpt; spin; max resid(k); each band:
  5.86E-14 8.66E-13 1.37E-12 2.36E-12 4.03E-14 2.59E-12 1.62E-12 2.00E-13
  6.72E-14 1.53E-12 3.29E-14 7.76E-14 5.69E-13 1.79E-12 1.15E-12 2.93E-13
  1.24E-13 1.61E-12 7.28E-13 8.74E-13
   0.3125  0.0625  0.0625    1  1.96115E-11 kpt; spin; max resid(k); each band:
  4.80E-14 5.89E-13 1.37E-12 2.38E-12 6.77E-14 2.83E-12 1.79E-12 2.87E-13
  1.04E-13 2.05E-12 2.57E-14 1.14E-13 2.92E-13 2.42E-12 1.79E-13 2.56E-13
  6.95E-13 6.63E-13 3.08E-12 1.96E-11
   0.4375  0.0625  0.0625    1  6.62027E-07 kpt; spin; max resid(k); each band:
  3.52E-14 3.39E-13 1.38E-12 2.40E-12 1.00E-13 3.07E-12 2.06E-12 3.21E-13
  7.97E-14 1.97E-12 2.28E-13 1.73E-12 1.61E-13 1.17E-11 3.75E-12 3.34E-12
  3.53E-10 1.60E-09 2.63E-10 6.62E-07
  -0.4375  0.0625  0.0625    1  3.07237E-11 kpt; spin; max resid(k); each band:
  4.81E-14 5.89E-13 1.37E-12 2.38E-12 6.77E-14 2.83E-12 1.79E-12 2.87E-13
  1.04E-13 2.05E-12 2.62E-14 1.14E-13 2.82E-13 2.40E-12 1.73E-13 2.60E-13
  5.70E-13 5.72E-13 2.45E-12 3.07E-11
  -0.3125  0.0625  0.0625    1  2.58996E-12 kpt; spin; max resid(k); each band:
  5.87E-14 8.66E-13 1.37E-12 2.36E-12 4.03E-14 2.59E-12 1.62E-12 2.00E-13
  6.73E-14 1.54E-12 3.14E-14 7.89E-14 5.68E-13 1.78E-12 1.17E-12 2.91E-13
  1.24E-13 1.62E-12 7.23E-13 8.77E-13
  -0.1875  0.0625  0.0625    1  2.45668E-12 kpt; spin; max resid(k); each band:
  6.46E-14 1.04E-12 1.36E-12 2.37E-12 1.55E-14 2.46E-12 1.46E-12 1.15E-13
  4.82E-14 1.22E-12 2.89E-14 3.11E-14 4.71E-14 5.17E-13 1.74E-13 5.59E-13
  4.41E-13 2.43E-13 3.77E-13 3.74E-13
  -0.0625  0.0625  0.0625    1  2.41734E-12 kpt; spin; max resid(k); each band:
  6.66E-14 1.10E-12 1.36E-12 2.37E-12 1.04E-14 2.42E-12 1.40E-12 7.81E-14
  4.54E-14 1.14E-12 2.49E-14 1.29E-14 2.36E-14 8.97E-14 8.27E-14 9.08E-14
  9.91E-14 1.22E-13 2.48E-13 1.54E-13
   0.0625  0.1875  0.0625    1  2.59013E-12 kpt; spin; max resid(k); each band:
  5.86E-14 8.66E-13 1.37E-12 2.36E-12 4.03E-14 2.59E-12 1.62E-12 2.00E-13
  6.73E-14 1.54E-12 3.15E-14 7.87E-14 5.66E-13 1.79E-12 1.16E-12 2.88E-13
  1.24E-13 1.62E-12 7.24E-13 8.80E-13
   0.1875  0.1875  0.0625    1  3.82456E-12 kpt; spin; max resid(k); each band:
  4.97E-14 6.46E-13 1.37E-12 2.37E-12 4.67E-14 2.72E-12 1.77E-12 2.78E-13
  1.02E-13 2.29E-12 6.59E-14 6.05E-14 1.67E-12 1.12E-12 1.12E-13 1.12E-13
  2.26E-13 1.65E-12 9.13E-13 3.82E-12
   0.3125  0.1875  0.0625    1  4.15840E-08 kpt; spin; max resid(k); each band:
  3.59E-14 3.51E-13 1.39E-12 2.37E-12 6.64E-14 2.85E-12 2.04E-12 3.19E-13
  1.07E-13 1.18E-13 2.24E-12 1.51E-13 2.36E-12 3.27E-12 1.71E-13 8.12E-13
  9.76E-12 3.02E-11 5.18E-10 4.16E-08
   0.4375  0.1875  0.0625    1  9.53321E-08 kpt; spin; max resid(k); each band:
  4.01E-14 3.65E-13 1.37E-12 2.39E-12 6.47E-14 2.93E-12 1.89E-12 3.92E-13
  1.06E-13 1.21E-13 2.23E-12 1.57E-13 2.37E-12 3.28E-12 6.94E-13 1.14E-12
  1.99E-11 8.40E-11 3.06E-10 9.53E-08
  -0.4375  0.1875  0.0625    1  3.99314E-12 kpt; spin; max resid(k); each band:
  5.20E-14 6.52E-13 1.35E-12 2.40E-12 4.03E-14 2.83E-12 1.57E-12 3.74E-13
  1.03E-13 2.26E-12 9.95E-14 4.90E-14 1.66E-12 1.16E-12 1.68E-13 1.08E-13
  2.87E-13 1.74E-12 9.14E-13 3.99E-12
  -0.3125  0.1875  0.0625    1  2.67104E-12 kpt; spin; max resid(k); each band:
  5.95E-14 8.67E-13 1.34E-12 2.40E-12 3.19E-14 2.67E-12 1.47E-12 2.75E-13
  6.46E-14 1.52E-12 2.71E-14 1.14E-13 7.88E-13 1.84E-12 1.52E-12 1.03E-13
  1.35E-13 1.61E-12 5.80E-13 8.85E-13
  -0.1875  0.1875  0.0625    1  2.55079E-12 kpt; spin; max resid(k); each band:
  6.34E-14 9.84E-13 1.35E-12 2.39E-12 1.63E-14 2.55E-12 1.41E-12 1.99E-13
  4.74E-14 1.28E-12 1.86E-14 8.91E-14 5.46E-14 1.82E-13 6.19E-13 6.15E-13
  4.55E-13 2.49E-13 5.37E-13 3.15E-13
  -0.0625  0.1875  0.0625    1  3.22561E-12 kpt; spin; max resid(k); each band:
  6.34E-14 9.84E-13 1.36E-12 2.37E-12 2.02E-14 2.52E-12 1.47E-12 1.70E-13
  4.86E-14 1.28E-12 1.60E-14 6.54E-14 5.79E-14 1.41E-13 2.27E-13 3.23E-12
  3.10E-12 2.50E-13 5.50E-13 3.28E-13
   0.0625  0.3125  0.0625    1  3.24062E-11 kpt; spin; max resid(k); each band:
  4.80E-14 5.89E-13 1.37E-12 2.38E-12 6.77E-14 2.83E-12 1.79E-12 2.88E-13
  1.04E-13 2.05E-12 2.56E-14 1.14E-13 2.83E-13 2.41E-12 2.21E-13 3.20E-13
  2.49E-13 1.03E-12 2.99E-12 3.24E-11
   0.1875  0.3125  0.0625    1  1.45804E-07 kpt; spin; max resid(k); each band:
  3.59E-14 3.51E-13 1.39E-12 2.37E-12 6.65E-14 2.85E-12 2.04E-12 3.18E-13
  1.07E-13 1.16E-13 2.24E-12 1.54E-13 2.37E-12 3.25E-12 3.25E-12 1.58E-12
  7.87E-11 9.16E-11 1.07E-08 1.46E-07
   0.3125  0.3125  0.0625    1  3.45245E-06 kpt; spin; max resid(k); each band:
  2.53E-14 1.30E-13 1.37E-12 2.38E-12 5.06E-14 2.74E-12 1.73E-12 3.75E-13
  5.39E-14 1.53E-13 1.54E-13 5.73E-13 1.85E-12 1.94E-12 1.41E-12 2.82E-12
  1.36E-10 1.00E-10 3.45E-06 1.32E-06
   0.4375  0.3125  0.0625    1  1.17792E-07 kpt; spin; max resid(k); each band:
  3.73E-14 3.54E-13 1.34E-12 2.42E-12 5.05E-14 3.09E-12 1.56E-12 5.65E-13
  1.17E-13 1.18E-13 2.17E-12 1.23E-13 2.35E-12 3.36E-12 2.59E-13 4.22E-13
  3.25E-11 4.17E-11 2.66E-09 1.18E-07
  -0.4375  0.3125  0.0625    1  2.51887E-11 kpt; spin; max resid(k); each band:
  4.73E-14 5.82E-13 1.32E-12 2.45E-12 4.25E-14 2.98E-12 1.46E-12 4.83E-13
  1.19E-13 2.01E-12 2.60E-14 1.33E-13 3.07E-13 2.43E-12 3.44E-13 2.28E-13
  6.28E-13 1.15E-12 3.84E-12 2.52E-11
  -0.3125  0.3125  0.0625    1  2.78539E-12 kpt; spin; max resid(k); each band:
  5.51E-14 7.56E-13 1.33E-12 2.43E-12 2.85E-14 2.79E-12 1.42E-12 3.83E-13
  8.49E-14 1.69E-12 1.76E-14 1.58E-13 4.57E-13 6.12E-13 1.84E-12 1.08E-13
  2.71E-13 5.72E-13 1.05E-12 1.54E-12
  -0.1875  0.3125  0.0625    1  2.70257E-12 kpt; spin; max resid(k); each band:
  5.87E-14 8.25E-13 1.35E-12 2.40E-12 3.17E-14 2.70E-12 1.49E-12 3.14E-13
  5.92E-14 1.60E-12 1.31E-13 3.40E-14 2.24E-13 1.20E-12 6.46E-13 3.30E-13
  1.33E-13 7.81E-13 1.29E-12 6.11E-13
  -0.0625  0.3125  0.0625    1  2.72590E-12 kpt; spin; max resid(k); each band:
  5.61E-14 7.63E-13 1.36E-12 2.38E-12 5.83E-14 2.73E-12 1.59E-12 2.62E-13
  7.69E-14 1.71E-12 1.33E-14 1.07E-13 2.93E-13 1.19E-12 2.19E-12 2.58E-13
  2.18E-13 5.14E-13 8.22E-13 1.46E-12
   0.0625  0.4375  0.0625    1  1.13580E-06 kpt; spin; max resid(k); each band:
  3.52E-14 3.39E-13 1.38E-12 2.40E-12 1.00E-13 3.07E-12 2.06E-12 3.20E-13
  7.78E-14 1.89E-12 2.00E-13 1.74E-12 1.73E-13 1.34E-11 2.07E-12 3.35E-12
  3.45E-10 1.01E-09 1.75E-10 1.14E-06
   0.1875  0.4375  0.0625    1  9.75536E-07 kpt; spin; max resid(k); each band:
  4.01E-14 3.64E-13 1.37E-12 2.39E-12 5.52E-14 2.94E-12 1.89E-12 3.91E-13
  1.06E-13 1.20E-13 2.22E-12 1.57E-13 2.39E-12 3.27E-12 1.45E-12 8.46E-13
  2.09E-11 8.41E-11 3.48E-09 9.76E-07
   0.3125  0.4375  0.0625    1  1.60354E-07 kpt; spin; max resid(k); each band:
  3.73E-14 3.54E-13 1.34E-12 2.42E-12 5.06E-14 3.09E-12 1.56E-12 5.64E-13
  1.17E-13 1.17E-13 2.16E-12 1.20E-13 2.36E-12 3.36E-12 1.29E-12 2.43E-12
  7.21E-11 8.80E-11 1.45E-09 1.60E-07
   0.4375  0.4375  0.0625    1  1.97973E-07 kpt; spin; max resid(k); each band:
  2.96E-14 3.19E-13 1.31E-12 2.49E-12 6.53E-14 3.37E-12 1.42E-12 6.59E-13
  9.86E-14 1.84E-12 2.53E-13 1.73E-12 1.28E-13 9.46E-12 1.36E-12 3.09E-12
  8.50E-11 9.16E-10 3.11E-10 1.98E-07
  -0.4375  0.4375  0.0625    1  8.62216E-10 kpt; spin; max resid(k); each band:
  3.77E-14 4.37E-13 1.31E-12 2.48E-12 6.30E-14 3.26E-12 1.39E-12 5.95E-13
  1.11E-13 1.67E-12 1.59E-13 1.88E-12 1.90E-12 4.07E-13 2.96E-12 1.59E-12
  2.74E-11 1.94E-11 9.17E-11 8.62E-10
  -0.3125  0.4375  0.0625    1  1.82780E-11 kpt; spin; max resid(k); each band:
  4.81E-14 5.71E-13 1.33E-12 2.42E-12 3.85E-14 2.95E-12 1.49E-12 5.07E-13
  1.12E-13 2.33E-12 1.30E-13 1.45E-13 2.02E-12 4.33E-12 3.92E-12 3.02E-13
  3.16E-12 8.41E-13 2.64E-12 1.83E-11
  -0.1875  0.4375  0.0625    1  1.62799E-11 kpt; spin; max resid(k); each band:
  5.06E-14 5.81E-13 1.36E-12 2.40E-12 5.41E-14 2.90E-12 1.66E-12 3.94E-13
  9.33E-14 2.34E-12 1.54E-13 1.67E-13 1.94E-12 4.30E-12 3.83E-12 3.59E-13
  3.13E-12 1.22E-12 2.81E-12 1.63E-11
  -0.0625  0.4375  0.0625    1  4.02867E-09 kpt; spin; max resid(k); each band:
  4.31E-14 4.58E-13 1.37E-12 2.40E-12 9.82E-14 3.01E-12 1.88E-12 3.00E-13
  8.71E-14 1.75E-12 1.33E-13 1.74E-12 1.94E-12 7.30E-13 3.04E-12 1.76E-12
  3.58E-11 3.34E-11 9.55E-11 4.03E-09
   0.0625 -0.4375  0.0625    1  2.55504E-11 kpt; spin; max resid(k); each band:
  4.81E-14 5.89E-13 1.37E-12 2.38E-12 6.77E-14 2.83E-12 1.79E-12 2.88E-13
  1.04E-13 2.05E-12 2.74E-14 1.15E-13 2.89E-13 2.41E-12 1.65E-13 2.46E-13
  5.06E-13 5.87E-13 3.04E-12 2.56E-11
   0.1875 -0.4375  0.0625    1  4.00749E-12 kpt; spin; max resid(k); each band:
  5.21E-14 6.52E-13 1.35E-12 2.40E-12 4.03E-14 2.83E-12 1.57E-12 3.74E-13
  1.02E-13 2.25E-12 9.80E-14 4.99E-14 1.65E-12 1.16E-12 1.63E-13 1.10E-13
  2.94E-13 1.77E-12 9.00E-13 4.01E-12
   0.4375 -0.4375  0.0625    1  4.13252E-10 kpt; spin; max resid(k); each band:
  3.77E-14 4.37E-13 1.31E-12 2.48E-12 6.30E-14 3.26E-12 1.39E-12 5.96E-13
  1.11E-13 1.67E-12 1.14E-13 1.88E-12 1.71E-12 3.20E-13 2.94E-12 1.44E-12
  1.24E-11 2.21E-11 1.00E-10 4.13E-10
  -0.4375 -0.4375  0.0625    1  9.44581E-05 kpt; spin; max resid(k); each band:
  2.78E-14 2.77E-13 1.33E-12 2.48E-12 6.08E-14 3.34E-12 1.47E-12 7.02E-13
  1.24E-13 2.00E-12 4.97E-13 5.39E-14 2.97E-12 4.81E-12 7.62E-12 1.57E-09
  2.08E-10 2.29E-08 5.45E-07 9.45E-05
  -0.3125 -0.4375  0.0625    1  1.74605E-09 kpt; spin; max resid(k); each band:
  3.91E-14 3.49E-13 1.35E-12 2.40E-12 5.35E-14 3.03E-12 1.71E-12 5.26E-13
  1.12E-13 1.35E-13 1.34E-13 3.17E-12 2.44E-12 2.28E-12 2.78E-12 1.72E-13
  2.83E-11 1.02E-11 2.54E-11 1.75E-09
  -0.1875 -0.4375  0.0625    1  3.37931E-07 kpt; spin; max resid(k); each band:
  3.28E-14 2.93E-13 1.39E-12 2.40E-12 7.33E-14 3.02E-12 2.12E-12 3.59E-13
  1.00E-13 2.16E-12 4.31E-13 8.02E-14 3.30E-12 3.61E-12 1.22E-12 2.00E-10
  5.59E-11 3.88E-09 1.04E-09 3.38E-07
  -0.0625 -0.4375  0.0625    1  2.08068E-10 kpt; spin; max resid(k); each band:
  3.91E-14 4.46E-13 1.37E-12 2.38E-12 9.62E-14 2.95E-12 2.03E-12 2.62E-13
  9.08E-14 1.77E-12 1.55E-13 3.30E-13 6.27E-13 5.62E-13 2.96E-12 1.73E-12
  2.05E-11 1.57E-11 6.55E-11 2.08E-10
   0.0625 -0.3125  0.0625    1  2.59016E-12 kpt; spin; max resid(k); each band:
  5.87E-14 8.66E-13 1.37E-12 2.36E-12 4.03E-14 2.59E-12 1.62E-12 2.00E-13
  6.71E-14 1.53E-12 3.32E-14 7.78E-14 5.67E-13 1.79E-12 1.15E-12 2.93E-13
  1.24E-13 1.61E-12 7.26E-13 8.74E-13
   0.3125 -0.3125  0.0625    1  2.78534E-12 kpt; spin; max resid(k); each band:
  5.51E-14 7.56E-13 1.33E-12 2.43E-12 2.85E-14 2.79E-12 1.42E-12 3.83E-13
  8.56E-14 1.70E-12 1.72E-14 1.57E-13 4.61E-13 6.14E-13 1.83E-12 1.03E-13
  2.66E-13 5.82E-13 6.29E-13 1.61E-12
   0.4375 -0.3125  0.0625    1  1.92918E-11 kpt; spin; max resid(k); each band:
  4.81E-14 5.71E-13 1.33E-12 2.44E-12 3.84E-14 2.95E-12 1.49E-12 5.07E-13
  1.14E-13 2.35E-12 1.31E-13 1.49E-13 2.01E-12 4.33E-12 3.88E-12 2.87E-13
  3.15E-12 8.46E-13 3.95E-12 1.93E-11
  -0.4375 -0.3125  0.0625    1  5.90402E-10 kpt; spin; max resid(k); each band:
  3.91E-14 3.49E-13 1.35E-12 2.41E-12 5.36E-14 3.04E-12 1.70E-12 5.24E-13
  1.12E-13 1.35E-13 1.40E-13 3.20E-12 2.43E-12 2.28E-12 2.65E-12 1.97E-13
  2.81E-11 8.74E-12 3.35E-11 5.90E-10
  -0.3125 -0.3125  0.0625    1  9.62142E-10 kpt; spin; max resid(k); each band:
  3.01E-14 3.20E-13 1.40E-12 2.36E-12 6.50E-14 2.77E-12 2.26E-12 2.82E-13
  1.24E-13 9.12E-14 1.82E-13 3.28E-12 2.42E-12 2.23E-12 2.50E-12 3.24E-13
  2.83E-11 5.39E-12 5.20E-11 9.62E-10
  -0.1875 -0.3125  0.0625    1  1.82352E-11 kpt; spin; max resid(k); each band:
  4.24E-14 5.54E-13 1.39E-12 2.34E-12 5.22E-14 2.65E-12 2.04E-12 2.38E-13
  1.10E-13 2.43E-12 1.16E-13 1.75E-13 2.00E-12 3.90E-12 2.95E-12 3.46E-13
  3.10E-12 1.11E-12 2.88E-12 1.82E-11
  -0.0625 -0.3125  0.0625    1  2.61241E-12 kpt; spin; max resid(k); each band:
  5.26E-14 7.51E-13 1.38E-12 2.34E-12 4.55E-14 2.61E-12 1.82E-12 1.89E-13
  8.61E-14 1.75E-12 1.63E-14 9.36E-14 2.41E-13 1.12E-12 2.18E-12 2.56E-13
  1.77E-13 5.33E-13 9.05E-13 1.52E-12
   0.1875 -0.1875  0.0625    1  2.55076E-12 kpt; spin; max resid(k); each band:
  6.34E-14 9.84E-13 1.35E-12 2.39E-12 1.63E-14 2.55E-12 1.41E-12 1.99E-13
  4.75E-14 1.28E-12 1.84E-14 9.05E-14 5.56E-14 1.87E-13 6.21E-13 6.18E-13
  4.49E-13 2.48E-13 5.36E-13 3.24E-13
   0.3125 -0.1875  0.0625    1  2.70264E-12 kpt; spin; max resid(k); each band:
  5.87E-14 8.25E-13 1.35E-12 2.40E-12 3.17E-14 2.70E-12 1.49E-12 3.15E-13
  5.99E-14 1.60E-12 1.32E-13 3.37E-14 2.21E-13 1.20E-12 6.47E-13 3.39E-13
  1.28E-13 7.76E-13 1.29E-12 6.29E-13
   0.4375 -0.1875  0.0625    1  2.24757E-11 kpt; spin; max resid(k); each band:
  5.06E-14 5.81E-13 1.36E-12 2.40E-12 6.38E-14 2.90E-12 1.65E-12 3.94E-13
  9.42E-14 2.36E-12 1.55E-13 1.67E-13 1.94E-12 4.31E-12 3.81E-12 3.78E-13
  3.11E-12 1.20E-12 3.07E-12 2.25E-11
  -0.4375 -0.1875  0.0625    1  3.71119E-08 kpt; spin; max resid(k); each band:
  3.28E-14 2.93E-13 1.39E-12 2.40E-12 7.34E-14 3.03E-12 2.12E-12 3.58E-13
  1.00E-13 2.22E-12 4.47E-13 8.07E-14 2.78E-12 3.61E-12 5.88E-13 1.79E-10
  4.33E-11 4.14E-10 2.80E-09 3.71E-08
 outwf : prtvol=0 or 1, do not print more k-points.

 reduced coordinates (array xred) for    1 atoms
       0.000000000000      0.000000000000      0.000000000000
 rms dE/dt=  1.6104E-08; max dE/dt=  1.6104E-08; dE/dt below (all hartree)
    1      -0.000000016104     -0.000000016104      0.000000016104

 cartesian coordinates (angstrom) at end:
    1      0.00000000000000     0.00000000000000     0.00000000000000

 cartesian forces (hartree/bohr) at end:
    1     -0.00000000000000    -0.00000000000000     0.00000000000000
 frms,max,avg= 0.0000000E+00 0.0000000E+00   0.000E+00  0.000E+00  5.942E-09 h/b

 cartesian forces (eV/Angstrom) at end:
    1     -0.00000000000000    -0.00000000000000     0.00000000000000
 frms,max,avg= 0.0000000E+00 0.0000000E+00   0.000E+00  0.000E+00  3.056E-07 e/A
 length scales=  5.420000000000  5.420000000000  5.420000000000 bohr
              =  2.868140470558  2.868140470558  2.868140470558 angstroms
 prteigrs : about to open file Fe_e50_k8_withSO.o_DS1_EIG
 Fermi (or HOMO) energy (eV) =  12.22963   Average Vxc (eV)= -14.01164
 Eigenvalues (   eV  ) for nkpt= 136  k points:
 kpt#   1, nband= 20, wtk=  0.00781, kpt=  0.0625  0.0625  0.0625 (reduced coord)
 -79.64905 -76.96433 -46.12143 -45.65714 -44.87051 -43.09793 -42.63900 -42.27724
   3.72673   4.16325   9.48194   9.49823  10.33758  11.03619  11.05609  11.28496
  11.29799  12.22299  13.51704  13.52854
 kpt#   2, nband= 20, wtk=  0.00781, kpt=  0.1875  0.0625  0.0625 (reduced coord)
 -79.62638 -76.93981 -46.16725 -45.70432 -44.91138 -43.15126 -42.69724 -42.31728
   5.31991   5.80970   9.02911   9.20164  10.74634  10.89208  10.96082  11.29142
  11.45479  13.28658  13.44789  13.78688
 kpt#   3, nband= 20, wtk=  0.00781, kpt=  0.3125  0.0625  0.0625 (reduced coord)
 -79.58863 -76.90049 -46.21346 -45.74922 -44.94840 -43.20494 -42.75447 -42.35096
   6.86885   7.73976   8.62097   9.68824  10.28241  10.90882  11.19339  11.47938
  12.94468  13.54358  14.01487  14.89046
 kpt#   4, nband= 20, wtk=  0.00781, kpt=  0.4375  0.0625  0.0625 (reduced coord)
 -79.58420 -76.89511 -46.23500 -45.76999 -44.96411 -43.22984 -42.78100 -42.36416
   7.08381   8.34098   8.48998  10.12593  10.69583  11.32329  11.47047  11.50158
  13.68334  13.91889  14.03426  15.66973
 kpt#   5, nband= 20, wtk=  0.00781, kpt= -0.4375  0.0625  0.0625 (reduced coord)
 -79.58863 -76.90049 -46.21346 -45.74922 -44.94840 -43.20494 -42.75447 -42.35096
   6.86885   7.73976   8.62097   9.68824  10.28241  10.90882  11.19339  11.47938
  12.94468  13.54358  14.01487  14.89046
 kpt#   6, nband= 20, wtk=  0.00781, kpt= -0.3125  0.0625  0.0625 (reduced coord)
 -79.62638 -76.93981 -46.16725 -45.70432 -44.91138 -43.15126 -42.69724 -42.31728
   5.31991   5.80970   9.02911   9.20164  10.74634  10.89208  10.96082  11.29142
  11.45479  13.28658  13.44789  13.78688
 kpt#   7, nband= 20, wtk=  0.00781, kpt= -0.1875  0.0625  0.0625 (reduced coord)
 -79.64905 -76.96433 -46.12143 -45.65714 -44.87051 -43.09793 -42.63900 -42.27724
   3.72673   4.16325   9.48194   9.49823  10.33758  11.03619  11.05609  11.28496
  11.29799  12.22299  13.51704  13.52854
 kpt#   8, nband= 20, wtk=  0.00781, kpt= -0.0625  0.0625  0.0625 (reduced coord)
 -79.66358 -76.97989 -46.10381 -45.63894 -44.85339 -43.07742 -42.61705 -42.25933
   3.12952   3.55989   9.70591   9.77378   9.78372  10.84898  11.09010  11.55969
  11.59919  11.61458  13.31681  13.60994
 kpt#   9, nband= 20, wtk=  0.00781, kpt=  0.0625  0.1875  0.0625 (reduced coord)
 -79.62638 -76.93981 -46.16725 -45.70432 -44.91138 -43.15126 -42.69724 -42.31728
   5.31991   5.80970   9.02911   9.20164  10.74634  10.89208  10.96082  11.29142
  11.45479  13.28658  13.44789  13.78688
 kpt#  10, nband= 20, wtk=  0.00781, kpt=  0.1875  0.1875  0.0625 (reduced coord)
 -79.60196 -76.91394 -46.20507 -45.74516 -44.94622 -43.19528 -42.74675 -42.35277
   6.97505   7.62986   8.71488   8.82278  10.33186  10.40546  11.07724  11.44429
  13.09946  13.46892  13.95489  15.01113
 kpt#  11, nband= 20, wtk=  0.00781, kpt=  0.3125  0.1875  0.0625 (reduced coord)
 -79.57478 -76.88583 -46.23023 -45.77025 -44.97264 -43.22358 -42.77762 -42.38079
   7.77849   8.56072   8.98890   9.41262  10.11606  10.59739  11.26738  11.58856
  13.66622  14.08344  15.21957  16.84926
 kpt#  12, nband= 20, wtk=  0.00781, kpt=  0.4375  0.1875  0.0625 (reduced coord)
 -79.57478 -76.88583 -46.23275 -45.76510 -44.97569 -43.22696 -42.76987 -42.38473
   7.77850   8.56073   8.98892   9.41263  10.11623  10.59684  11.26722  11.58914
  13.66578  14.08388  15.21944  16.84930
 kpt#  13, nband= 20, wtk=  0.00781, kpt= -0.4375  0.1875  0.0625 (reduced coord)
 -79.60196 -76.91394 -46.21073 -45.73351 -44.95314 -43.20300 -42.72872 -42.36214
   6.97505   7.62988   8.71504   8.82269  10.33236  10.40423  11.07744  11.44495
  13.09895  13.46950  13.95453  15.01122
 kpt#  14, nband= 20, wtk=  0.00781, kpt= -0.3125  0.1875  0.0625 (reduced coord)
 -79.62638 -76.93981 -46.17274 -45.69297 -44.91813 -43.15893 -42.67895 -42.32701
   5.31991   5.80970   9.02926   9.20159  10.74243  10.89226  10.96646  11.28840
  11.45583  13.28957  13.44368  13.78809
 kpt#  15, nband= 20, wtk=  0.00781, kpt= -0.1875  0.1875  0.0625 (reduced coord)
 -79.64976 -76.96410 -46.14390 -45.66803 -44.89466 -43.12375 -42.64955 -42.30406
   4.28945   4.73876   9.38900   9.53280  10.40187  10.63329  11.16816  11.32410
  11.35037  12.30787  12.99298  13.86652
 kpt#  16, nband= 20, wtk=  0.00781, kpt= -0.0625  0.1875  0.0625 (reduced coord)
 -79.64976 -76.96410 -46.14133 -45.67339 -44.89144 -43.12036 -42.65799 -42.29945
   4.28945   4.73876   9.38876   9.53304  10.40120  10.63484  11.17256  11.29330
  11.37654  12.30679  12.99351  13.86643
 kpt#  17, nband= 20, wtk=  0.00781, kpt=  0.0625  0.3125  0.0625 (reduced coord)
 -79.58863 -76.90049 -46.21346 -45.74922 -44.94840 -43.20494 -42.75447 -42.35096
   6.86885   7.73976   8.62097   9.68824  10.28241  10.90882  11.19339  11.47938
  12.94468  13.54358  14.01487  14.89046
 kpt#  18, nband= 20, wtk=  0.00781, kpt=  0.1875  0.3125  0.0625 (reduced coord)
 -79.57478 -76.88583 -46.23023 -45.77025 -44.97264 -43.22358 -42.77762 -42.38079
   7.77849   8.56072   8.98890   9.41262  10.11606  10.59739  11.26738  11.58856
  13.66622  14.08344  15.21957  16.84927
 kpt#  19, nband= 20, wtk=  0.00781, kpt=  0.3125  0.3125  0.0625 (reduced coord)
 -79.57039 -76.88094 -46.23869 -45.77282 -44.98825 -43.23350 -42.77657 -42.40200
   8.16599   8.86225   8.87737   9.62077  10.20209  10.20241  11.48805  11.51861
  13.92718  13.95533  18.46747  18.49142
 kpt#  20, nband= 20, wtk=  0.00781, kpt=  0.4375  0.3125  0.0625 (reduced coord)
 -79.57478 -76.88583 -46.23818 -45.75390 -44.98213 -43.23620 -42.74927 -42.39542
   7.77847   8.56080   8.98906   9.41263  10.11563  10.59701  11.26664  11.59028
  13.66490  14.08443  15.21953  16.84927
 kpt#  21, nband= 20, wtk=  0.00781, kpt= -0.4375  0.3125  0.0625 (reduced coord)
 -79.58863 -76.90049 -46.22436 -45.72655 -44.96171 -43.22206 -42.71537 -42.37141
   6.86883   7.73979   8.62108   9.68819  10.28159  10.90944  11.19181  11.48176
  12.94408  13.54237  14.01627  14.89021
 kpt#  22, nband= 20, wtk=  0.00781, kpt= -0.3125  0.3125  0.0625 (reduced coord)
 -79.60641 -76.91903 -46.20141 -45.70683 -44.94469 -43.19333 -42.69262 -42.35529
   6.07771   6.69428   8.97765   9.45658  10.68397  10.96359  11.02000  11.52152
  11.68768  13.19914  13.69387  14.01838
 kpt#  23, nband= 20, wtk=  0.00781, kpt= -0.1875  0.3125  0.0625 (reduced coord)
 -79.61397 -76.92689 -46.18612 -45.70638 -44.93526 -43.17274 -42.69549 -42.34623
   5.78506   6.31046   9.19658   9.37979  10.48798  10.95705  11.08437  11.37410
  11.69181  12.71375  13.35923  14.14741
 kpt#  24, nband= 20, wtk=  0.00781, kpt= -0.0625  0.3125  0.0625 (reduced coord)
 -79.60641 -76.91903 -46.19358 -45.72321 -44.93503 -43.18095 -42.72158 -42.33982
   6.07772   6.69427   8.97747   9.45670  10.68691  10.95951  11.02150  11.51691
  11.69187  13.20051  13.69149  14.01951
 kpt#  25, nband= 20, wtk=  0.00781, kpt=  0.0625  0.4375  0.0625 (reduced coord)
 -79.58420 -76.89511 -46.23500 -45.76999 -44.96411 -43.22984 -42.78100 -42.36416
   7.08381   8.34098   8.48998  10.12593  10.69583  11.32329  11.47047  11.50158
  13.68334  13.91889  14.03426  15.66972
 kpt#  26, nband= 20, wtk=  0.00781, kpt=  0.1875  0.4375  0.0625 (reduced coord)
 -79.57478 -76.88583 -46.23275 -45.76510 -44.97569 -43.22696 -42.76987 -42.38473
   7.77850   8.56073   8.98892   9.41263  10.11623  10.59684  11.26722  11.58914
  13.66578  14.08388  15.21944  16.84933
 kpt#  27, nband= 20, wtk=  0.00781, kpt=  0.3125  0.4375  0.0625 (reduced coord)
 -79.57478 -76.88583 -46.23818 -45.75390 -44.98213 -43.23620 -42.74927 -42.39542
   7.77847   8.56080   8.98906   9.41263  10.11563  10.59701  11.26664  11.59028
  13.66490  14.08443  15.21953  16.84927
 kpt#  28, nband= 20, wtk=  0.00391, kpt=  0.4375  0.4375  0.0625 (reduced coord)
 -79.58420 -76.89511 -46.24920 -45.74023 -44.98166 -43.25224 -42.73000 -42.39075
   7.08378   8.34103   8.49008  10.12536  10.69606  11.31866  11.47207  11.50558
  13.68041  13.91632  14.03925  15.66949
 kpt#  29, nband= 20, wtk=  0.00781, kpt= -0.4375  0.4375  0.0625 (reduced coord)
 -79.59352 -76.90464 -46.24675 -45.73731 -44.97976 -43.24928 -42.72609 -42.38877
   6.95399   8.11439   8.60080  10.24143  10.28460  11.13294  11.36575  12.19915
  12.64880  13.41066  14.26604  14.77621
 kpt#  30, nband= 20, wtk=  0.00781, kpt= -0.3125  0.4375  0.0625 (reduced coord)
 -79.59386 -76.90510 -46.23460 -45.74245 -44.97867 -43.23128 -42.73509 -42.39100
   7.22268   8.14712   8.83254   9.26968  10.47355  10.78089  10.86351  11.77350
  13.02712  13.16936  14.08182  15.09404
 kpt#  31, nband= 20, wtk=  0.00781, kpt= -0.1875  0.4375  0.0625 (reduced coord)
 -79.59386 -76.90510 -46.22906 -45.75403 -44.97190 -43.22214 -42.75613 -42.37983
   7.22271   8.14711   8.83242   9.26968  10.47462  10.78212  10.86130  11.77303
  13.02638  13.17144  14.08070  15.09430
 kpt#  32, nband= 20, wtk=  0.00781, kpt= -0.0625  0.4375  0.0625 (reduced coord)
 -79.59352 -76.90464 -46.23353 -45.76506 -44.96344 -43.22782 -42.77489 -42.36320
   6.95402   8.11435   8.60069  10.24211  10.28501  11.13177  11.36584  12.19716
  12.65109  13.41166  14.26378  14.77730
 kpt#  33, nband= 20, wtk=  0.00781, kpt=  0.0625 -0.4375  0.0625 (reduced coord)
 -79.58863 -76.90049 -46.21346 -45.74922 -44.94840 -43.20494 -42.75447 -42.35096
   6.86885   7.73976   8.62097   9.68824  10.28241  10.90882  11.19339  11.47938
  12.94468  13.54358  14.01487  14.89046
 kpt#  34, nband= 20, wtk=  0.00781, kpt=  0.1875 -0.4375  0.0625 (reduced coord)
 -79.60196 -76.91394 -46.21073 -45.73351 -44.95314 -43.20300 -42.72872 -42.36214
   6.97505   7.62988   8.71504   8.82269  10.33236  10.40423  11.07744  11.44495
  13.09895  13.46950  13.95453  15.01122
 kpt#  35, nband= 20, wtk=  0.00781, kpt=  0.4375 -0.4375  0.0625 (reduced coord)
 -79.59352 -76.90464 -46.24675 -45.73731 -44.97976 -43.24928 -42.72609 -42.38877
   6.95399   8.11439   8.60080  10.24143  10.28460  11.13294  11.36575  12.19915
  12.64880  13.41066  14.26604  14.77621
 kpt#  36, nband= 20, wtk=  0.00781, kpt= -0.4375 -0.4375  0.0625 (reduced coord)
 -79.58295 -76.89348 -46.25551 -45.75637 -44.99571 -43.25686 -42.75034 -42.40781
   7.40847   8.74656   8.81735   9.51761  10.46891  10.82821  10.99542  12.20311
  13.22098  14.37719  14.81240  16.39569
 kpt#  37, nband= 20, wtk=  0.00781, kpt= -0.3125 -0.4375  0.0625 (reduced coord)
 -79.56691 -76.87738 -46.24979 -45.77446 -44.99580 -43.24665 -42.77817 -42.40768
   8.17392   8.59485   9.04536   9.48703  10.13383  10.56614  11.24847  11.80802
  13.42936  14.03102  16.05633  17.58893
 kpt#  38, nband= 20, wtk=  0.00781, kpt= -0.1875 -0.4375  0.0625 (reduced coord)
 -79.58295 -76.89348 -46.24336 -45.78172 -44.98067 -43.23885 -42.79206 -42.38593
   7.40851   8.74659   8.81699   9.51792  10.47016  10.82702  10.99514  12.20319
  13.22109  14.37746  14.81206  16.39180
 kpt#  39, nband= 20, wtk=  0.00781, kpt= -0.0625 -0.4375  0.0625 (reduced coord)
 -79.59352 -76.90464 -46.23081 -45.77067 -44.95998 -43.22515 -42.78154 -42.35981
   6.95402   8.11434   8.60066  10.24774  10.27911  11.13203  11.36610  12.19801
  12.64955  13.41157  14.26499  14.77663
 kpt#  40, nband= 20, wtk=  0.00781, kpt=  0.0625 -0.3125  0.0625 (reduced coord)
 -79.62638 -76.93981 -46.16725 -45.70432 -44.91138 -43.15126 -42.69724 -42.31728
   5.31991   5.80970   9.02911   9.20164  10.74634  10.89208  10.96082  11.29142
  11.45479  13.28658  13.44789  13.78688
 kpt#  41, nband= 20, wtk=  0.00781, kpt=  0.3125 -0.3125  0.0625 (reduced coord)
 -79.60641 -76.91903 -46.20141 -45.70683 -44.94469 -43.19333 -42.69262 -42.35529
   6.07771   6.69428   8.97765   9.45658  10.68397  10.96359  11.02000  11.52152
  11.68768  13.19914  13.69387  14.01838
 kpt#  42, nband= 20, wtk=  0.00781, kpt=  0.4375 -0.3125  0.0625 (reduced coord)
 -79.59386 -76.90510 -46.23460 -45.74245 -44.97867 -43.23128 -42.73509 -42.39100
   7.22268   8.14712   8.83254   9.26968  10.47355  10.78089  10.86351  11.77350
  13.02712  13.16936  14.08182  15.09404
 kpt#  43, nband= 20, wtk=  0.00781, kpt= -0.4375 -0.3125  0.0625 (reduced coord)
 -79.56691 -76.87738 -46.24979 -45.77446 -44.99580 -43.24665 -42.77817 -42.40768
   8.17392   8.59484   9.04536   9.48703  10.13383  10.56614  11.24847  11.80802
  13.42936  14.03102  16.05633  17.58893
 kpt#  44, nband= 20, wtk=  0.00781, kpt= -0.3125 -0.3125  0.0625 (reduced coord)
 -79.56691 -76.87738 -46.24307 -45.78828 -44.98752 -43.23822 -42.79807 -42.39739
   8.17400   8.59459   9.04548   9.48703  10.13380  10.56669  11.24796  11.80803
  13.42947  14.03089  16.05643  17.58885
 kpt#  45, nband= 20, wtk=  0.00781, kpt= -0.1875 -0.3125  0.0625 (reduced coord)
 -79.59386 -76.90510 -46.21958 -45.77345 -44.96008 -43.21198 -42.78116 -42.36684
   7.22270   8.14708   8.83221   9.26995  10.47377  10.79091  10.85342  11.77315
  13.02729  13.16932  14.08214  15.09386
 kpt#  46, nband= 20, wtk=  0.00781, kpt= -0.0625 -0.3125  0.0625 (reduced coord)
 -79.60641 -76.91903 -46.18627 -45.73820 -44.92582 -43.17387 -42.73971 -42.33030
   6.07772   6.69426   8.97741   9.45672  10.68747  10.95812  11.02228  11.52067
  11.68799  13.19947  13.69451  14.01776
 kpt#  47, nband= 20, wtk=  0.00781, kpt=  0.1875 -0.1875  0.0625 (reduced coord)
 -79.64976 -76.96410 -46.14390 -45.66803 -44.89466 -43.12375 -42.64955 -42.30406
   4.28945   4.73876   9.38900   9.53280  10.40187  10.63329  11.16816  11.32410
  11.35037  12.30787  12.99298  13.86652
 kpt#  48, nband= 20, wtk=  0.00781, kpt=  0.3125 -0.1875  0.0625 (reduced coord)
 -79.61397 -76.92689 -46.18612 -45.70638 -44.93526 -43.17274 -42.69549 -42.34623
   5.78506   6.31046   9.19658   9.37979  10.48798  10.95705  11.08437  11.37410
  11.69181  12.71375  13.35923  14.14741
 kpt#  49, nband= 20, wtk=  0.00781, kpt=  0.4375 -0.1875  0.0625 (reduced coord)
 -79.59386 -76.90510 -46.22906 -45.75403 -44.97190 -43.22214 -42.75613 -42.37983
   7.22271   8.14711   8.83242   9.26968  10.47462  10.78212  10.86131  11.77303
  13.02638  13.17144  14.08070  15.09430
 kpt#  50, nband= 20, wtk=  0.00781, kpt= -0.4375 -0.1875  0.0625 (reduced coord)
 -79.58295 -76.89348 -46.24336 -45.78172 -44.98067 -43.23885 -42.79206 -42.38593
   7.40851   8.74659   8.81699   9.51792  10.47016  10.82702  10.99514  12.20319
  13.22109  14.37746  14.81206  16.39178
 prteigrs : prtvol=0 or 1, do not print more k-points.

 Total charge density [el/Bohr^3]
,     Maximum=    3.6496E+00  at reduced coord.    0.9333    0.9333    0.8667
,Next maximum=    3.6496E+00  at reduced coord.    0.0667    0.0667    0.1333
,     Minimum=    1.7792E-02  at reduced coord.    0.0000    0.0000    0.0000
,Next minimum=    3.6292E-02  at reduced coord.    0.6000    0.5000    0.1000
,  Integrated=    1.6000E+01
 x component of magnetization [el/Bohr^3]
,     Maximum=    1.2781E-03  at reduced coord.    0.1000    0.0667    0.9667
,Next maximum=    1.2781E-03  at reduced coord.    0.9000    0.9333    0.0333
,     Minimum=   -1.2781E-03  at reduced coord.    0.1000    0.1333    0.0333
,Next minimum=   -1.2781E-03  at reduced coord.    0.9000    0.8667    0.9667
,  Integrated=    0.0000E+00
 y component of magnetization [el/Bohr^3]
,     Maximum=    1.2781E-03  at reduced coord.    0.0667    0.1000    0.9667
,Next maximum=    1.2781E-03  at reduced coord.    0.9333    0.9000    0.0333
,     Minimum=   -1.2781E-03  at reduced coord.    0.1333    0.1000    0.0333
,Next minimum=   -1.2781E-03  at reduced coord.    0.8667    0.9000    0.9667
,  Integrated=    0.0000E+00
 z component of magnetization [el/Bohr^3]
,     Maximum=    7.6080E-01  at reduced coord.    0.1000    0.1000    0.0000
,Next maximum=    7.6080E-01  at reduced coord.    0.9000    0.9000    0.0000
,     Minimum=   -2.3401E-03  at reduced coord.    0.7333    0.2333    0.5000
,Next minimum=   -2.3401E-03  at reduced coord.    0.2333    0.7333    0.5000
,  Integrated=    2.0429E+00
 Magnetization (absolute value) [el/Bohr^3]
,     Maximum=    7.6080E-01  at reduced coord.    0.1000    0.1000    0.0000
,Next maximum=    7.6080E-01  at reduced coord.    0.9000    0.9000    0.0000
,     Minimum=    1.0602E-05  at reduced coord.    0.4000    0.8667    0.3333
,Next minimum=    1.0602E-05  at reduced coord.    0.8667    0.5333    0.4667
,  Integrated=    2.0965E+00
 Relative magnetization (=zeta, between -1 and 1)
,     Maximum=    2.9315E-01  at reduced coord.    0.7333    0.7333    0.0000
,Next maximum=    2.9315E-01  at reduced coord.    0.2667    0.2667    0.0000
,     Minimum=    2.6006E-04  at reduced coord.    0.4000    0.8667    0.3333
,Next minimum=    2.6006E-04  at reduced coord.    0.8667    0.5333    0.4667

--------------------------------------------------------------------------------
 Components of total free energy (in Hartree) :

    Kinetic energy  =  6.31994077667057E+01
    Hartree energy  =  3.15168456555937E+01
    XC energy       = -1.27990705179952E+01
    Ewald energy    = -8.59449965935601E+01
    PspCore energy  =  3.40158543545826E+00
    Loc. psp. energy= -1.03956960872160E+02
    NL   psp  energy= -1.81042274045814E+01
    >>>>> Internal E= -1.22687416530539E+02

    -kT*entropy     = -1.18728470369680E-03
    >>>>>>>>> Etotal= -1.22688603815243E+02

 Other information on the energy :
    Total energy(eV)= -3.33852669366404E+03 ; Band energy (Ha)=  -1.2664185530E+01
--------------------------------------------------------------------------------

 Cartesian components of stress tensor (hartree/bohr^3)
  sigma(1 1)=  2.67239781E-02  sigma(3 2)=  0.00000000E+00
  sigma(2 2)=  2.67239781E-02  sigma(3 1)=  0.00000000E+00
  sigma(3 3)=  2.67231605E-02  sigma(2 1)=  0.00000000E+00

-Cartesian components of stress tensor (GPa)         [Pressure= -7.8624E+02 GPa]
- sigma(1 1)=  7.86246448E+02  sigma(3 2)=  0.00000000E+00
- sigma(2 2)=  7.86246448E+02  sigma(3 1)=  0.00000000E+00
- sigma(3 3)=  7.86222393E+02  sigma(2 1)=  0.00000000E+00

================================================================================
== DATASET  2 ==================================================================

 mkfilename : getden/=0, take file _DEN from output of DATASET   1.

 Exchange-correlation functional for the present dataset will be:
  LDA: new Teter (4/93) with spin-polarized option - ixc=1
 Citation for XC functional:
  S. Goedecker, M. Teter, J. Huetter, PRB 54, 1703 (1996)

 Real(R)+Recip(G) space primitive vectors, cartesian coordinates (Bohr,Bohr^-1):
 R(1)= -2.7100000  2.7100000  2.7100000  G(1)=  0.0000000  0.1845018  0.1845018
 R(2)=  2.7100000 -2.7100000  2.7100000  G(2)=  0.1845018  0.0000000  0.1845018
 R(3)=  2.7100000  2.7100000 -2.7100000  G(3)=  0.1845018  0.1845018  0.0000000
 Unit cell volume ucvol=  7.9610044E+01 bohr^3
 Angles (23,13,12)=  1.09471221E+02  1.09471221E+02  1.09471221E+02 degrees

 getcut: wavevector=  0.0000  0.0000  0.0000  ngfft=  30  30  30
         ecut(hartree)=     50.000   => boxcut(ratio)=   2.00790
--------------------------------------------------------------------------------

P newkpt: treating     34 bands with npw=    1355 for ikpt=   1
P newkpt: treating     34 bands with npw=    1351 for ikpt=   2
P newkpt: treating     34 bands with npw=    1339 for ikpt=   3
P newkpt: treating     34 bands with npw=    1342 for ikpt=   4
P newkpt: treating     34 bands with npw=    1339 for ikpt=   5
P newkpt: treating     34 bands with npw=    1351 for ikpt=   6
P newkpt: treating     34 bands with npw=    1355 for ikpt=   7
P newkpt: treating     34 bands with npw=    1361 for ikpt=   8
P newkpt: treating     34 bands with npw=    1351 for ikpt=   9
P newkpt: treating     34 bands with npw=    1346 for ikpt=  10
P newkpt: treating     34 bands with npw=    1337 for ikpt=  11
P newkpt: treating     34 bands with npw=    1337 for ikpt=  12
P newkpt: treating     34 bands with npw=    1346 for ikpt=  13
P newkpt: treating     34 bands with npw=    1351 for ikpt=  14
P newkpt: treating     34 bands with npw=    1360 for ikpt=  15
P newkpt: treating     34 bands with npw=    1360 for ikpt=  16
P newkpt: treating     34 bands with npw=    1339 for ikpt=  17
P newkpt: treating     34 bands with npw=    1337 for ikpt=  18
P newkpt: treating     34 bands with npw=    1337 for ikpt=  19
P newkpt: treating     34 bands with npw=    1337 for ikpt=  20
P newkpt: treating     34 bands with npw=    1339 for ikpt=  21
P newkpt: treating     34 bands with npw=    1345 for ikpt=  22
P newkpt: treating     34 bands with npw=    1348 for ikpt=  23
P newkpt: treating     34 bands with npw=    1345 for ikpt=  24
P newkpt: treating     34 bands with npw=    1342 for ikpt=  25
P newkpt: treating     34 bands with npw=    1337 for ikpt=  26
P newkpt: treating     34 bands with npw=    1337 for ikpt=  27
P newkpt: treating     34 bands with npw=    1342 for ikpt=  28
P newkpt: treating     34 bands with npw=    1347 for ikpt=  29
P newkpt: treating     34 bands with npw=    1347 for ikpt=  30
P newkpt: treating     34 bands with npw=    1347 for ikpt=  31
P newkpt: treating     34 bands with npw=    1347 for ikpt=  32
P newkpt: treating     34 bands with npw=    1339 for ikpt=  33
P newkpt: treating     34 bands with npw=    1346 for ikpt=  34
P newkpt: treating     34 bands with npw=    1347 for ikpt=  35
P newkpt: treating     34 bands with npw=    1345 for ikpt=  36
P newkpt: treating     34 bands with npw=    1337 for ikpt=  37
P newkpt: treating     34 bands with npw=    1345 for ikpt=  38
P newkpt: treating     34 bands with npw=    1347 for ikpt=  39
P newkpt: treating     34 bands with npw=    1351 for ikpt=  40
P newkpt: treating     34 bands with npw=    1345 for ikpt=  41
P newkpt: treating     34 bands with npw=    1347 for ikpt=  42
P newkpt: treating     34 bands with npw=    1337 for ikpt=  43
P newkpt: treating     34 bands with npw=    1337 for ikpt=  44
P newkpt: treating     34 bands with npw=    1347 for ikpt=  45
P newkpt: treating     34 bands with npw=    1345 for ikpt=  46
P newkpt: treating     34 bands with npw=    1360 for ikpt=  47
P newkpt: treating     34 bands with npw=    1348 for ikpt=  48
P newkpt: treating     34 bands with npw=    1347 for ikpt=  49
P newkpt: treating     34 bands with npw=    1345 for ikpt=  50
  newkpt: prtvol=0 or 1, do not print more k-points.


================================================================================
 prteigrs : about to open file Fe_e50_k8_withSO.o_DS2_EIG
 Non-SCF case, kpt    1 (  0.06250  0.06250  0.06250), residuals and eigenvalues=
  1.70E-11  1.51E-11  8.23E-12  8.76E-11  6.40E-12  6.78E-11  4.08E-11  2.82E-11
  8.77E-12  7.28E-12  6.24E-11  4.49E-11  4.17E-11  8.49E-11  2.02E-11  2.43E-11
  2.13E-11  9.11E-11  5.36E-11  4.84E-11  7.82E-11  4.18E-11  6.45E-11  6.29E-11
  5.51E-10  3.25E-11  1.90E-09  2.14E-11  4.77E-06  3.23E-06  9.73E-06  7.19E-06
  3.17E-05  1.89E-04
 -2.9271E+00 -2.8284E+00 -1.6949E+00 -1.6779E+00 -1.6490E+00 -1.5838E+00
 -1.5670E+00 -1.5537E+00  1.3695E-01  1.5300E-01  3.4845E-01  3.4905E-01
  3.7990E-01  4.0557E-01  4.0630E-01  4.1471E-01  4.1519E-01  4.4919E-01
  4.9674E-01  4.9716E-01  1.1920E+00  1.1931E+00  1.2131E+00  1.2142E+00
  1.3034E+00  1.3378E+00  1.3378E+00  1.3441E+00  1.5012E+00  1.5048E+00
  1.5241E+00  1.5275E+00  1.5860E+00  1.6140E+00
  prteigrs : nnsclo,ikpt=  300    1 max resid (incl. the buffer)=  1.89367E-04
 Non-SCF case, kpt    2 (  0.18750  0.06250  0.06250), residuals and eigenvalues=
  4.94E-11  3.82E-11  4.23E-11  2.69E-11  2.40E-11  3.20E-11  9.83E-11  1.38E-11
  6.36E-11  5.73E-12  5.48E-11  4.75E-11  6.54E-11  5.35E-11  4.80E-11  3.50E-11
  4.96E-11  3.63E-11  7.58E-11  9.98E-11  2.55E-11  5.77E-11  3.96E-11  2.18E-11
  2.73E-11  6.31E-11  1.06E-09  6.39E-10  6.41E-07  7.03E-07  1.92E-06  3.93E-07
  2.78E-04  1.35E-03
 -2.9262E+00 -2.8275E+00 -1.6966E+00 -1.6796E+00 -1.6505E+00 -1.5858E+00
 -1.5691E+00 -1.5551E+00  1.9550E-01  2.1350E-01  3.3181E-01  3.3815E-01
  3.9492E-01  4.0028E-01  4.0280E-01  4.1495E-01  4.2095E-01  4.8827E-01
  4.9420E-01  5.0666E-01  9.9457E-01  1.0273E+00  1.1057E+00  1.1291E+00
  1.1637E+00  1.1951E+00  1.3623E+00  1.3750E+00  1.4995E+00  1.5283E+00
  1.5407E+00  1.5606E+00  1.6479E+00  1.6706E+00
  prteigrs : nnsclo,ikpt=  300    2 max resid (incl. the buffer)=  1.34722E-03
 Non-SCF case, kpt    3 (  0.31250  0.06250  0.06250), residuals and eigenvalues=
  4.01E-11  5.50E-11  4.70E-11  1.02E-11  2.75E-11  1.90E-11  1.69E-11  9.07E-12
  2.74E-11  1.47E-11  5.18E-11  6.09E-11  3.21E-11  6.50E-11  9.02E-11  3.35E-11
  2.42E-11  1.15E-11  2.50E-11  6.80E-11  4.75E-11  5.99E-11  2.39E-11  1.24E-11
  3.68E-11  6.48E-11  3.48E-10  2.20E-10  5.05E-09  7.96E-09  1.59E-08  8.75E-08
  6.43E-08  3.74E-08
 -2.9248E+00 -2.8260E+00 -1.6983E+00 -1.6813E+00 -1.6518E+00 -1.5878E+00
 -1.5712E+00 -1.5564E+00  2.5242E-01  2.8443E-01  3.1681E-01  3.5604E-01
  3.7787E-01  4.0089E-01  4.1135E-01  4.2186E-01  4.7571E-01  4.9772E-01
  5.1504E-01  5.4721E-01  7.9740E-01  8.4008E-01  1.0402E+00  1.0618E+00
  1.0763E+00  1.1051E+00  1.3573E+00  1.3788E+00  1.4814E+00  1.5111E+00
  1.6560E+00  1.6612E+00  1.6724E+00  1.6806E+00
  prteigrs : nnsclo,ikpt=  300    3 max resid (incl. the buffer)=  8.75391E-08
 Non-SCF case, kpt    4 (  0.43750  0.06250  0.06250), residuals and eigenvalues=
  2.78E-11  4.53E-11  3.08E-11  1.78E-11  3.38E-11  1.80E-11  1.96E-11  2.77E-11
  2.58E-11  1.27E-11  8.49E-11  2.35E-11  1.67E-11  2.47E-11  7.20E-11  1.28E-11
  1.50E-11  1.86E-11  1.57E-11  1.73E-11  4.44E-11  1.39E-11  1.93E-11  8.31E-11
  2.83E-11  2.36E-11  8.57E-10  8.64E-10  9.23E-09  9.43E-08  6.79E-08  2.66E-07
  8.21E-05  5.09E-04
 -2.9247E+00 -2.8258E+00 -1.6991E+00 -1.6820E+00 -1.6524E+00 -1.5887E+00
 -1.5722E+00 -1.5569E+00  2.6032E-01  3.0652E-01  3.1200E-01  3.7212E-01
  3.9306E-01  4.1612E-01  4.2153E-01  4.2267E-01  5.0285E-01  5.1151E-01
  5.1575E-01  5.7585E-01  6.8891E-01  7.4248E-01  1.0163E+00  1.0365E+00
  1.0416E+00  1.0680E+00  1.3531E+00  1.3775E+00  1.4811E+00  1.5121E+00
  1.6420E+00  1.6549E+00  1.8268E+00  1.8462E+00
  prteigrs : nnsclo,ikpt=  300    4 max resid (incl. the buffer)=  5.08944E-04
 Non-SCF case, kpt    5 ( -0.43750  0.06250  0.06250), residuals and eigenvalues=
  6.48E-11  2.29E-11  3.82E-11  4.44E-11  1.56E-11  3.00E-11  1.33E-11  1.07E-11
  1.18E-11  3.80E-12  1.99E-11  1.58E-11  2.12E-11  2.33E-11  2.72E-11  1.52E-11
  1.63E-11  8.03E-11  7.09E-11  2.43E-11  3.16E-11  5.03E-11  2.68E-11  1.41E-11
  1.22E-11  6.48E-11  1.27E-10  1.12E-10  7.00E-10  1.38E-09  3.91E-09  9.89E-09
  3.04E-08  6.98E-08
 -2.9248E+00 -2.8260E+00 -1.6983E+00 -1.6813E+00 -1.6518E+00 -1.5878E+00
 -1.5712E+00 -1.5564E+00  2.5242E-01  2.8443E-01  3.1681E-01  3.5604E-01
  3.7787E-01  4.0089E-01  4.1135E-01  4.2186E-01  4.7571E-01  4.9772E-01
  5.1504E-01  5.4721E-01  7.9740E-01  8.4008E-01  1.0402E+00  1.0618E+00
  1.0763E+00  1.1051E+00  1.3573E+00  1.3788E+00  1.4814E+00  1.5111E+00
  1.6560E+00  1.6612E+00  1.6724E+00  1.6806E+00
  prteigrs : nnsclo,ikpt=  300    5 max resid (incl. the buffer)=  6.98250E-08
 Non-SCF case, kpt    6 ( -0.31250  0.06250  0.06250), residuals and eigenvalues=
  5.11E-11  3.81E-11  4.27E-11  1.33E-11  2.72E-11  1.72E-11  1.73E-11  1.65E-11
  5.16E-12  6.78E-12  3.76E-11  5.20E-11  7.66E-11  2.26E-11  6.73E-11  1.85E-11
  8.08E-11  4.68E-11  8.97E-11  2.37E-11  1.53E-11  6.39E-11  8.79E-11  9.43E-11
  1.96E-11  8.11E-11  3.56E-10  3.95E-10  1.17E-07  1.65E-06  7.94E-07  1.05E-06
  8.12E-04  1.45E-03
 -2.9262E+00 -2.8275E+00 -1.6966E+00 -1.6796E+00 -1.6505E+00 -1.5858E+00
 -1.5691E+00 -1.5551E+00  1.9550E-01  2.1350E-01  3.3181E-01  3.3815E-01
  3.9492E-01  4.0028E-01  4.0280E-01  4.1495E-01  4.2095E-01  4.8827E-01
  4.9420E-01  5.0666E-01  9.9457E-01  1.0273E+00  1.1057E+00  1.1291E+00
  1.1637E+00  1.1951E+00  1.3623E+00  1.3750E+00  1.4995E+00  1.5283E+00
  1.5407E+00  1.5606E+00  1.6482E+00  1.6698E+00
  prteigrs : nnsclo,ikpt=  300    6 max resid (incl. the buffer)=  1.44821E-03
 Non-SCF case, kpt    7 ( -0.18750  0.06250  0.06250), residuals and eigenvalues=
  2.63E-11  2.39E-11  9.16E-11  8.79E-11  9.87E-12  5.55E-11  9.30E-12  6.92E-11
  7.40E-12  1.44E-11  7.97E-11  1.70E-11  2.77E-11  1.86E-11  2.09E-11  6.06E-11
  1.93E-11  7.93E-11  3.19E-11  3.61E-11  6.62E-11  4.13E-11  6.28E-11  5.85E-11
  2.47E-10  8.91E-11  6.14E-10  1.91E-11  1.17E-06  1.02E-06  6.98E-06  2.72E-06
  8.29E-04  1.75E-03
 -2.9271E+00 -2.8284E+00 -1.6949E+00 -1.6779E+00 -1.6490E+00 -1.5838E+00
 -1.5670E+00 -1.5537E+00  1.3695E-01  1.5300E-01  3.4845E-01  3.4905E-01
  3.7990E-01  4.0557E-01  4.0630E-01  4.1471E-01  4.1519E-01  4.4919E-01
  4.9674E-01  4.9716E-01  1.1920E+00  1.1931E+00  1.2131E+00  1.2142E+00
  1.3034E+00  1.3378E+00  1.3378E+00  1.3441E+00  1.5012E+00  1.5048E+00
  1.5241E+00  1.5275E+00  1.5875E+00  1.5906E+00
  prteigrs : nnsclo,ikpt=  300    7 max resid (incl. the buffer)=  1.75328E-03
 Non-SCF case, kpt    8 ( -0.06250  0.06250  0.06250), residuals and eigenvalues=
  1.67E-11  4.26E-11  1.17E-11  4.66E-11  2.61E-11  5.39E-11  4.24E-11  8.64E-11
  1.23E-11  9.83E-12  6.67E-11  8.48E-11  9.22E-11  9.48E-11  6.85E-11  4.00E-11
  4.21E-11  2.93E-11  4.24E-11  3.74E-11  1.22E-11  4.16E-11  2.64E-11  9.06E-11
  3.42E-11  5.63E-11  5.33E-10  5.39E-09  1.17E-07  1.25E-07  1.31E-06  7.05E-07
  2.54E-04  6.24E-04
 -2.9276E+00 -2.8290E+00 -1.6943E+00 -1.6772E+00 -1.6483E+00 -1.5831E+00
 -1.5661E+00 -1.5530E+00  1.1501E-01  1.3082E-01  3.5668E-01  3.5918E-01
  3.5954E-01  3.9869E-01  4.0755E-01  4.2481E-01  4.2626E-01  4.2683E-01
  4.8938E-01  5.0015E-01  1.2558E+00  1.2682E+00  1.3002E+00  1.3002E+00
  1.3110E+00  1.3110E+00  1.4036E+00  1.4284E+00  1.4716E+00  1.4717E+00
  1.5056E+00  1.5056E+00  1.6006E+00  1.6147E+00
  prteigrs : nnsclo,ikpt=  300    8 max resid (incl. the buffer)=  6.23732E-04
 Non-SCF case, kpt    9 (  0.06250  0.18750  0.06250), residuals and eigenvalues=
  3.52E-11  2.01E-11  3.72E-11  2.56E-11  2.80E-11  4.55E-11  1.53E-11  2.24E-11
  5.00E-12  1.45E-11  6.50E-11  1.37E-11  1.79E-11  2.36E-11  3.25E-11  5.20E-11
  1.86E-11  5.77E-11  5.32E-11  3.15E-11  3.52E-11  4.35E-11  1.69E-11  1.02E-11
  2.23E-11  4.53E-11  5.43E-11  6.17E-11  8.55E-09  6.61E-08  3.36E-08  5.14E-08
  4.12E-05  6.65E-05
 -2.9262E+00 -2.8275E+00 -1.6966E+00 -1.6796E+00 -1.6505E+00 -1.5858E+00
 -1.5691E+00 -1.5551E+00  1.9550E-01  2.1350E-01  3.3181E-01  3.3815E-01
  3.9492E-01  4.0028E-01  4.0280E-01  4.1495E-01  4.2095E-01  4.8827E-01
  4.9420E-01  5.0666E-01  9.9457E-01  1.0273E+00  1.1057E+00  1.1291E+00
  1.1637E+00  1.1951E+00  1.3623E+00  1.3750E+00  1.4995E+00  1.5283E+00
  1.5407E+00  1.5606E+00  1.6475E+00  1.6688E+00
  prteigrs : nnsclo,ikpt=  300    9 max resid (incl. the buffer)=  6.65433E-05
 Non-SCF case, kpt   10 (  0.18750  0.18750  0.06250), residuals and eigenvalues=
  1.69E-11  3.08E-11  5.80E-12  4.69E-11  2.47E-11  5.10E-11  3.72E-11  3.27E-11
  6.99E-12  5.56E-12  2.88E-11  1.71E-11  5.85E-11  9.66E-11  1.64E-11  4.08E-11
  4.27E-11  7.31E-11  1.94E-11  3.55E-11  3.30E-11  4.52E-11  6.95E-11  3.48E-11
  4.03E-11  1.26E-11  4.07E-11  4.12E-11  4.48E-08  8.87E-08  2.45E-07  1.66E-06
  7.31E-05  3.08E-04
 -2.9253E+00 -2.8265E+00 -1.6980E+00 -1.6811E+00 -1.6517E+00 -1.5874E+00
 -1.5709E+00 -1.5564E+00  2.5633E-01  2.8039E-01  3.2026E-01  3.2423E-01
  3.7969E-01  3.8239E-01  4.0708E-01  4.2057E-01  4.8139E-01  4.9497E-01
  5.1283E-01  5.5165E-01  9.0979E-01  9.1794E-01  9.4619E-01  9.4940E-01
  1.0549E+00  1.0825E+00  1.4275E+00  1.4402E+00  1.5661E+00  1.5885E+00
  1.6394E+00  1.6616E+00  1.7261E+00  1.7515E+00
  prteigrs : nnsclo,ikpt=  300   10 max resid (incl. the buffer)=  3.08447E-04
 Non-SCF case, kpt   11 (  0.31250  0.18750  0.06250), residuals and eigenvalues=
  6.30E-11  1.90E-11  4.47E-11  2.10E-11  2.26E-11  2.11E-11  1.43E-11  1.26E-11
  2.54E-11  3.91E-11  2.79E-11  4.76E-11  2.09E-11  5.25E-11  6.13E-11  3.86E-11
  6.46E-11  2.63E-11  1.92E-11  1.07E-11  2.80E-11  5.49E-11  7.62E-11  4.91E-11
  7.02E-12  1.10E-11  6.02E-10  1.97E-09  1.78E-08  8.25E-08  7.80E-07  6.96E-07
  3.69E-04  3.84E-04
 -2.9243E+00 -2.8255E+00 -1.6989E+00 -1.6820E+00 -1.6527E+00 -1.5884E+00
 -1.5721E+00 -1.5575E+00  2.8585E-01  3.1460E-01  3.3034E-01  3.4591E-01
  3.7176E-01  3.8945E-01  4.1407E-01  4.2587E-01  5.0222E-01  5.1756E-01
  5.5931E-01  6.1920E-01  7.3733E-01  7.8162E-01  8.6692E-01  8.9952E-01
  1.0111E+00  1.0383E+00  1.4466E+00  1.4637E+00  1.5928E+00  1.6095E+00
  1.6663E+00  1.6909E+00  1.8167E+00  1.8365E+00
  prteigrs : nnsclo,ikpt=  300   11 max resid (incl. the buffer)=  3.84023E-04
 Non-SCF case, kpt   12 (  0.43750  0.18750  0.06250), residuals and eigenvalues=
  3.79E-11  1.72E-11  1.51E-11  1.80E-11  1.57E-11  1.93E-11  1.26E-11  1.59E-11
  2.63E-11  3.01E-11  1.17E-11  5.40E-11  4.83E-11  9.27E-11  2.30E-11  3.70E-11
  7.32E-11  1.77E-11  4.89E-11  1.02E-11  1.26E-11  3.09E-11  5.38E-11  4.99E-11
  1.48E-11  1.39E-11  3.03E-10  6.03E-10  1.28E-08  2.66E-08  1.67E-07  7.52E-07
  5.04E-04  1.46E-04
 -2.9243E+00 -2.8255E+00 -1.6990E+00 -1.6818E+00 -1.6528E+00 -1.5886E+00
 -1.5718E+00 -1.5576E+00  2.8585E-01  3.1460E-01  3.3034E-01  3.4591E-01
  3.7176E-01  3.8943E-01  4.1406E-01  4.2589E-01  5.0221E-01  5.1757E-01
  5.5930E-01  6.1920E-01  7.3733E-01  7.8162E-01  8.6692E-01  8.9952E-01
  1.0111E+00  1.0383E+00  1.4466E+00  1.4637E+00  1.5928E+00  1.6095E+00
  1.6663E+00  1.6909E+00  1.8168E+00  1.8364E+00
  prteigrs : nnsclo,ikpt=  300   12 max resid (incl. the buffer)=  5.04476E-04
 Non-SCF case, kpt   13 ( -0.43750  0.18750  0.06250), residuals and eigenvalues=
  4.44E-11  4.18E-11  2.68E-11  2.76E-11  2.79E-11  1.37E-11  2.11E-11  1.60E-11
[...]
                       1.000000  0.999999  0.999960  0.999923  0.000000  0.000000
                       0.000000  0.000000
                       1.000000  1.000000  1.000000  1.000000  1.000000  1.000000
                       1.000000  1.000000  1.000000  1.000000  1.000000  1.000000
                       1.000000  1.000000  1.000000  0.999952  0.000101  0.000000
                       0.000000  0.000000
                       1.000000  1.000000  1.000000  1.000000  1.000000  1.000000
                       1.000000  1.000000  1.000000  1.000000  1.000000  1.000000
                       1.000000  1.000000  1.000000  0.999999  0.999972  0.000000
                       0.000000  0.000000
                       1.000000  1.000000  1.000000  1.000000  1.000000  1.000000
                       1.000000  1.000000  1.000000  1.000000  1.000000  1.000000
                       1.000000  1.000000  1.000000  1.000000  0.999999  0.513762
                       0.000000  0.000000
                       1.000000  1.000000  1.000000  1.000000  1.000000  1.000000
                       1.000000  1.000000  1.000000  1.000000  1.000000  1.000000
                       1.000000  1.000000  1.000000  0.999751  0.999474  0.999304
                       0.000000  0.000000
                       1.000000  1.000000  1.000000  1.000000  1.000000  1.000000
                       1.000000  1.000000  1.000000  1.000000  1.000000  1.000000
                       1.000000  1.000000  1.000000  0.999999  0.999972  0.000000
                       0.000000  0.000000
                       1.000000  1.000000  1.000000  1.000000  1.000000  1.000000
                       1.000000  1.000000  1.000000  1.000000  1.000000  1.000000
                       1.000000  1.000000  1.000000  0.999978  0.000003  0.000000
                       0.000000  0.000000
                       1.000000  1.000000  1.000000  1.000000  1.000000  1.000000
                       1.000000  1.000000  1.000000  1.000000  1.000000  1.000000
                       1.000000  1.000000  1.000000  0.999568  0.000000  0.000000
                       0.000000  0.000000
                       1.000000  1.000000  1.000000  1.000000  1.000000  1.000000
                       1.000000  1.000000  1.000000  1.000000  1.000000  1.000000
                       1.000000  1.000000  1.000000  0.999564  0.000000  0.000000
                       0.000000  0.000000
                       1.000000  1.000000  1.000000  1.000000  1.000000  1.000000
                       1.000000  1.000000  1.000000  1.000000  1.000000  1.000000
                       1.000000  1.000000  1.000000  0.999977  0.000003  0.000000
                       0.000000  0.000000
                       1.000000  1.000000  1.000000  1.000000  1.000000  1.000000
                       1.000000  1.000000  1.000000  1.000000  1.000000  1.000000
                       1.000000  1.000000  1.000000  1.000000  0.999971  0.000000
                       0.000000  0.000000
                       1.000000  1.000000  1.000000  1.000000  1.000000  1.000000
                       1.000000  1.000000  1.000000  1.000000  1.000000  1.000000
                       1.000000  1.000000  1.000000  0.999999  0.999998  0.342136
                       0.000036  0.000000
                       1.000000  1.000000  1.000000  1.000000  1.000000  1.000000
                       1.000000  1.000000  1.000000  1.000000  1.000000  1.000000
                       1.000000  1.000000  1.000000  0.999999  0.999995  0.344208
                       0.000036  0.000000
                       1.000000  1.000000  1.000000  1.000000  1.000000  1.000000
                       1.000000  1.000000  1.000000  1.000000  1.000000  1.000000
                       1.000000  1.000000  1.000000  0.999952  0.000101  0.000000
                       0.000000  0.000000
                       1.000000  1.000000  1.000000  1.000000  1.000000  1.000000
                       1.000000  1.000000  1.000000  1.000000  1.000000  1.000000
                       1.000000  1.000000  1.000000  0.999568  0.000000  0.000000
                       0.000000  0.000000
                       1.000000  1.000000  1.000000  1.000000  1.000000  1.000000
                       1.000000  1.000000  1.000000  1.000000  1.000000  1.000000
                       1.000000  1.000000  0.999942  0.999890  0.000000  0.000000
                       0.000000  0.000000
                       1.000000  1.000000  1.000000  1.000000  1.000000  1.000000
                       1.000000  1.000000  1.000000  1.000000  1.000000  1.000000
                       1.000000  1.000000  1.000000  0.999554  0.000000  0.000000
                       0.000000  0.000000
                       1.000000  1.000000  1.000000  1.000000  1.000000  1.000000
                       1.000000  1.000000  1.000000  1.000000  1.000000  1.000000
                       1.000000  1.000000  1.000000  0.999949  0.000102  0.000000
                       0.000000  0.000000
                       1.000000  1.000000  1.000000  1.000000  1.000000  1.000000
                       1.000000  1.000000  1.000000  1.000000  1.000000  1.000000
                       1.000000  1.000000  1.000000  0.999883  0.997573  0.000000
                       0.000000  0.000000
                       1.000000  1.000000  1.000000  1.000000  1.000000  1.000000
                       1.000000  1.000000  1.000000  1.000000  1.000000  1.000000
                       1.000000  1.000000  1.000000  0.999996  0.997406  0.005934
                       0.000000  0.000000
                       1.000000  1.000000  1.000000  1.000000  1.000000  1.000000
                       1.000000  1.000000  1.000000  1.000000  1.000000  1.000000
                       1.000000  1.000000  1.000000  0.999894  0.997403  0.000000
                       0.000000  0.000000
                       1.000000  1.000000  1.000000  1.000000  1.000000  1.000000
                       1.000000  1.000000  1.000000  1.000000  1.000000  1.000000
                       1.000000  0.999999  0.999960  0.999923  0.000000  0.000000
                       0.000000  0.000000
                       1.000000  1.000000  1.000000  1.000000  1.000000  1.000000
                       1.000000  1.000000  1.000000  1.000000  1.000000  1.000000
                       1.000000  1.000000  1.000000  0.999564  0.000000  0.000000
                       0.000000  0.000000
                       1.000000  1.000000  1.000000  1.000000  1.000000  1.000000
                       1.000000  1.000000  1.000000  1.000000  1.000000  1.000000
                       1.000000  1.000000  1.000000  0.999554  0.000000  0.000000
                       0.000000  0.000000
                       1.000000  1.000000  1.000000  1.000000  1.000000  1.000000
                       1.000000  1.000000  1.000000  1.000000  1.000000  1.000000
                       1.000000  0.999999  0.999959  0.999916  0.000000  0.000000
                       0.000000  0.000000
                       1.000000  1.000000  1.000000  1.000000  1.000000  1.000000
                       1.000000  1.000000  1.000000  1.000000  1.000000  1.000000
                       1.000000  1.000000  0.999996  0.562931  0.014686  0.000000
                       0.000000  0.000000
                       1.000000  1.000000  1.000000  1.000000  1.000000  1.000000
                       1.000000  1.000000  1.000000  1.000000  1.000000  1.000000
                       1.000000  1.000000  1.000000  0.991120  0.000017  0.000001
                       0.000000  0.000000
                       1.000000  1.000000  1.000000  1.000000  1.000000  1.000000
                       1.000000  1.000000  1.000000  1.000000  1.000000  1.000000
                       1.000000  1.000000  1.000000  0.991178  0.000017  0.000000
                       0.000000  0.000000
                       1.000000  1.000000  1.000000  1.000000  1.000000  1.000000
                       1.000000  1.000000  1.000000  1.000000  1.000000  1.000000
                       1.000000  1.000000  0.999996  0.567013  0.014249  0.000000
                       0.000000  0.000000
                       1.000000  1.000000  1.000000  1.000000  1.000000  1.000000
                       1.000000  1.000000  1.000000  1.000000  1.000000  1.000000
                       1.000000  1.000000  1.000000  0.999952  0.000101  0.000000
                       0.000000  0.000000
                       1.000000  1.000000  1.000000  1.000000  1.000000  1.000000
                       1.000000  1.000000  1.000000  1.000000  1.000000  1.000000
                       1.000000  1.000000  1.000000  0.999977  0.000003  0.000000
                       0.000000  0.000000
                       1.000000  1.000000  1.000000  1.000000  1.000000  1.000000
                       1.000000  1.000000  1.000000  1.000000  1.000000  1.000000
                       1.000000  1.000000  0.999996  0.562931  0.014686  0.000000
                       0.000000  0.000000
                       1.000000  1.000000  1.000000  1.000000  1.000000  1.000000
                       1.000000  1.000000  1.000000  1.000000  1.000000  1.000000
                       1.000000  1.000000  1.000000  0.554814  0.000000  0.000000
                       0.000000  0.000000
                       1.000000  1.000000  1.000000  1.000000  1.000000  1.000000
                       1.000000  1.000000  1.000000  1.000000  1.000000  1.000000
                       1.000000  1.000000  1.000000  0.985780  0.000000  0.000000
                       0.000000  0.000000
                       1.000000  1.000000  1.000000  1.000000  1.000000  1.000000
                       1.000000  1.000000  1.000000  1.000000  1.000000  1.000000
                       1.000000  1.000000  1.000000  0.554647  0.000000  0.000000
                       0.000000  0.000000
                       1.000000  1.000000  1.000000  1.000000  1.000000  1.000000
                       1.000000  1.000000  1.000000  1.000000  1.000000  1.000000
                       1.000000  1.000000  0.999996  0.565267  0.014540  0.000000
                       0.000000  0.000000
                       1.000000  1.000000  1.000000  1.000000  1.000000  1.000000
                       1.000000  1.000000  1.000000  1.000000  1.000000  1.000000
                       1.000000  1.000000  1.000000  0.999999  0.999972  0.000000
                       0.000000  0.000000
                       1.000000  1.000000  1.000000  1.000000  1.000000  1.000000
                       1.000000  1.000000  1.000000  1.000000  1.000000  1.000000
                       1.000000  1.000000  1.000000  0.999883  0.997573  0.000000
                       0.000000  0.000000
                       1.000000  1.000000  1.000000  1.000000  1.000000  1.000000
                       1.000000  1.000000  1.000000  1.000000  1.000000  1.000000
                       1.000000  1.000000  1.000000  0.991120  0.000017  0.000001
                       0.000000  0.000000
                       1.000000  1.000000  1.000000  1.000000  1.000000  1.000000
                       1.000000  1.000000  1.000000  1.000000  1.000000  1.000000
                       1.000000  1.000000  1.000000  0.985780  0.000000  0.000000
                       0.000000  0.000000
                       1.000000  1.000000  1.000000  1.000000  1.000000  1.000000
                       1.000000  1.000000  1.000000  1.000000  1.000000  1.000000
                       1.000000  1.000000  1.000000  0.985779  0.000000  0.000000
                       0.000000  0.000000
                       1.000000  1.000000  1.000000  1.000000  1.000000  1.000000
                       1.000000  1.000000  1.000000  1.000000  1.000000  1.000000
                       1.000000  1.000000  1.000000  0.991163  0.000017  0.000001
                       0.000000  0.000000
                       1.000000  1.000000  1.000000  1.000000  1.000000  1.000000
                       1.000000  1.000000  1.000000  1.000000  1.000000  1.000000
                       1.000000  1.000000  1.000000  0.999885  0.997561  0.000000
                       0.000000  0.000000
                       1.000000  1.000000  1.000000  1.000000  1.000000  1.000000
                       1.000000  1.000000  1.000000  1.000000  1.000000  1.000000
                       1.000000  1.000000  1.000000  0.999999  0.999998  0.342136
                       0.000036  0.000000
                       1.000000  1.000000  1.000000  1.000000  1.000000  1.000000
                       1.000000  1.000000  1.000000  1.000000  1.000000  1.000000
                       1.000000  1.000000  1.000000  0.999996  0.997406  0.005934
                       0.000000  0.000000
                       1.000000  1.000000  1.000000  1.000000  1.000000  1.000000
                       1.000000  1.000000  1.000000  1.000000  1.000000  1.000000
                       1.000000  1.000000  1.000000  0.991178  0.000017  0.000000
                       0.000000  0.000000
                       1.000000  1.000000  1.000000  1.000000  1.000000  1.000000
                       1.000000  1.000000  1.000000  1.000000  1.000000  1.000000
                       1.000000  1.000000  1.000000  0.554647  0.000000  0.000000
                       0.000000  0.000000
                       prtocc : prtvol=0, do not print more k-points.
           occopt           7
            rprim     -5.0000000000E-01  5.0000000000E-01  5.0000000000E-01
                       5.0000000000E-01 -5.0000000000E-01  5.0000000000E-01
                       5.0000000000E-01  5.0000000000E-01 -5.0000000000E-01
           shiftk      5.00000000E-01  5.00000000E-01  5.00000000E-01
          spgroup          79
           spinat      0.0000000000E+00  0.0000000000E+00  5.0000000000E+00
           strten1     2.6723978090E-02  2.6723978090E-02  2.6723160460E-02
                       0.0000000000E+00  0.0000000000E+00  0.0000000000E+00
        symmorphi1          1
        symmorphi2          0
           symrel      1  0  0   0  1  0   0  0  1       0  1  0   1  0  0  -1 -1 -1
                       1  1  1   0  0 -1  -1  0  0       0  0 -1   1  1  1   0 -1  0
           toldfe1     1.00000000E-08 Hartree
           toldfe2     0.00000000E+00 Hartree
           tolwfr1     0.00000000E+00
           tolwfr2     1.00000000E-10
           tsmear      1.00000000E-02 Hartree
            typat      1
              wtk        0.00781    0.00781    0.00781    0.00781    0.00781    0.00781
                         0.00781    0.00781    0.00781    0.00781    0.00781    0.00781
                         0.00781    0.00781    0.00781    0.00781    0.00781    0.00781
                         0.00781    0.00781    0.00781    0.00781    0.00781    0.00781
                         0.00781    0.00781    0.00781    0.00391    0.00781    0.00781
                         0.00781    0.00781    0.00781    0.00781    0.00781    0.00781
                         0.00781    0.00781    0.00781    0.00781    0.00781    0.00781
                         0.00781    0.00781    0.00781    0.00781    0.00781    0.00781
                         0.00781    0.00781
                       outvars : Printing only first  50 k-points.
            znucl       26.00000

================================================================================

- Total cpu        time (s,m,h):       4087.0       68.12      1.135
- Total wall clock time (s,m,h):       4091.4       68.19      1.136

- For major independent code sections, cpu and wall times (sec),
- as well as % of the total time and number of calls 

- routine                         cpu     %       wall     %      number of calls 
-                                                                  (-1=no count)
- fourwf%(pot)                2447.168  59.9   2447.433  59.8        1278612
- projbd                       468.842  11.5    470.360  11.5         504326
- getghc-other                 417.722  10.2    418.981  10.2             -1
- nonlop(apply)                293.446   7.2    294.020   7.2         319653
- fourwf%(den)                 138.557   3.4    138.794   3.4         131364
- vtowfk(ssdiag)               100.144   2.5    100.230   2.4             -1
- 75   others                   30.439   0.7     30.142   0.7

- subtotal                    3896.317  95.3   3899.960  95.3

================================================================================

 Suggested references for the acknowledgment of ABINIT usage.

 The users of ABINIT have little formal obligations with respect to the ABINIT group
 (those specified in the GNU General Public License, http://www.gnu.org/copyleft/gpl.txt).
 However, it is common practice in the scientific literature,
 to acknowledge the efforts of people that have made the research possible.
 In this spirit, please find below suggested citations of work written by ABINIT developers,
 corresponding to implementations inside of ABINIT that you have used in the present run.
 Note also that it will be of great value to readers of publications presenting these results,
 to read papers enabling them to understand the theoretical formalism and details
 of the ABINIT implementation.
 For information on why they are suggested, see also http://www.abinit.org/about/?text=acknowledgments.

 [1] ABINIT : First-principles approach of materials and nanosystem properties.
 X. Gonze, B. Amadon, P.-M. Anglade, J.-M. Beuken, F. Bottin, P. Boulanger, F. Bruneval,
 D. Caliste, R. Caracas, M. Cote, T. Deutsch, L. Genovese, Ph. Ghosez, M. Giantomassi
 S. Goedecker, D.R. Hamann, P. Hermet, F. Jollet, G. Jomard, S. Leroux, M. Mancini, S. Mazevet,
 M.J.T. Oliveira, G. Onida, Y. Pouillon, T. Rangel, G.-M. Rignanese, D. Sangalli, R. Shaltaf,
 M. Torrent, M.J. Verstraete, G. Zerah, J.W. Zwanziger
 Computer Phys. Comm. 180, 2582-2615 (2009).
 Comment : the third generic paper describing the ABINIT project.
 Note that a version of this paper, that is not formatted for Computer Phys. Comm. 
 is available at http://www.abinit.org/about/ABINIT_CPC_v10.pdf .
 The licence allows the authors to put it on the Web.

 [2] A brief introduction to the ABINIT software package.
 X. Gonze, G.-M. Rignanese, M. Verstraete, J.-M. Beuken, Y. Pouillon, R. Caracas, F. Jollet,
 M. Torrent, G. Zerah, M. Mikami, Ph. Ghosez, M. Veithen, J.-Y. Raty, V. Olevano, F. Bruneval,
 L. Reining, R. Godby, G. Onida, D.R. Hamann, and D.C. Allan.
 Z. Kristallogr. 220, 558-562 (2005).
 Comment : the second generic paper describing the ABINIT project. Note that this paper
 should be cited especially if you are using the GW part of ABINIT, as several authors
 of this part are not in the list of authors of the first or third paper.
 The .pdf of the latter paper is available at http://www.abinit.org/about/zfk_0505-06_558-562.pdf.
 Note that it should not redistributed (Copyright by Oldenburg Wissenshaftverlag,
 the licence allows the authors to put it on the Web).


 And optionally :

 [3] First-principles computation of material properties : the ABINIT software project. 
 X. Gonze, J.-M. Beuken, R. Caracas, F. Detraux, M. Fuchs, G.-M. Rignanese, L. Sindic,
 M. Verstraete, G. Zerah, F. Jollet, M. Torrent, A. Roy, M. Mikami, Ph. Ghosez, J.-Y. Raty, D.C. Allan.
 Computational Materials Science 25, 478-492 (2002). http://dx.doi.org/10.1016/S0927-0256(02)00325-7
 Comment : the original paper describing the ABINIT project.

 [4] Fast radix 2, 3, 4 and 5 kernels for Fast Fourier Transformations
 on computers with overlapping multiply-add instructions.
 S. Goedecker, SIAM J. on Scientific Computing 18, 1605 (1997).

================================================================================

 Calculation completed.
.Delivered    4 WARNINGs and   9 COMMENTs to log file.
+Overall time at end (sec) : cpu=       4087.0  wall=       4091.4
