
     Program PWSCF v.4.3.2      starts on  2Apr2012 at 12:10:26 

     This program is part of the open-source Quantum ESPRESSO suite
     for quantum simulation of materials; please cite
         "P. Giannozzi et al., J. Phys.:Condens. Matter 21 395502 (2009);
          URL http://www.quantum-espresso.org", 
     in publications or presentations arising from this work. More details at
     http://www.quantum-espresso.org/wiki/index.php/Citing_Quantum-ESPRESSO

     Parallel version (MPI), running on     1 processors

     Current dimensions of program PWSCF are:
     Max number of different atomic species (ntypx) = 10
     Max number of k-points (npk) =  40000
     Max angular momentum in pseudopotentials (lmaxx) =  3
     Waiting for input...
     Reading input from stdin

     Subspace diagonalization in iterative solution of the eigenvalue problem:
     a serial algorithm will be used


     G-vector sticks info
     --------------------
     sticks:   dense  smooth     PW     G-vecs:    dense   smooth      PW
     Sum         211     211     85                 2085     2085     459



     bravais-lattice index     =            2
     lattice parameter (alat)  =      10.1830  a.u.
     unit-cell volume          =     263.9777 (a.u.)^3
     number of atoms/cell      =            2
     number of atomic types    =            1
     number of electrons       =         8.00
     number of Kohn-Sham states=           50
     kinetic-energy cutoff     =      15.0000  Ry
     charge density cutoff     =      60.0000  Ry
     convergence threshold     =      1.0E-08
     mixing beta               =       0.7000
     number of iterations used =            8  plain     mixing
     Exchange-correlation      =  SLA  PZ   NOGX NOGC ( 1 1 0 0 0)
     EXX-fraction              =        0.00

     celldm(1)=  10.183000  celldm(2)=   0.000000  celldm(3)=   0.000000
     celldm(4)=   0.000000  celldm(5)=   0.000000  celldm(6)=   0.000000

     crystal axes: (cart. coord. in units of alat)
               a(1) = (  -0.500000   0.000000   0.500000 )  
               a(2) = (   0.000000   0.500000   0.500000 )  
               a(3) = (  -0.500000   0.500000   0.000000 )  

     reciprocal axes: (cart. coord. in units 2 pi/alat)
               b(1) = ( -1.000000 -1.000000  1.000000 )  
               b(2) = (  1.000000  1.000000  1.000000 )  
               b(3) = ( -1.000000  1.000000 -1.000000 )  


     PseudoPot. # 1 for Si read from file:
     /home/dsangalli/Personal_files/Workshop/2012_Losanna_Cecam/trunk/GW_tutorial/Si/gs/pwscf/psps/Si.vbc.UPF
     MD5 check sum: 7974b67c806a44bbea7c2da40a3c413a
     Pseudo is Norm-conserving, Zval =  4.0
     Generated by new atomic code, or converted to UPF format
     Using radial grid of  431 points,  2 beta functions with: 
                l(1) =   0
                l(2) =   1

     atomic species   valence    mass     pseudopotential
        Si             4.00    28.08600     Si( 1.00)

     24 Sym.Ops. (no inversion)

                                    s                        frac. trans.

      isym =  1     identity                                     

 cryst.   s( 1) = (     1          0          0      )    f =(  0.0000000 )
                  (     0          1          0      )       (  0.0000000 )
                  (     0          0          1      )       (  0.0000000 )

 cart.    s( 1) = (  1.0000000  0.0000000  0.0000000 )    f =(  0.0000000 )
                  (  0.0000000  1.0000000  0.0000000 )       (  0.0000000 )
                  (  0.0000000  0.0000000  1.0000000 )       (  0.0000000 )


      isym =  2     180 deg rotation - cart. axis [0,0,1]        

 cryst.   s( 2) = (     0          1         -1      )    f =(  0.0000000 )
                  (     1          0         -1      )       (  0.0000000 )
                  (     0          0         -1      )       (  0.0000000 )

 cart.    s( 2) = ( -1.0000000  0.0000000  0.0000000 )    f =(  0.0000000 )
                  (  0.0000000 -1.0000000  0.0000000 )       (  0.0000000 )
                  (  0.0000000  0.0000000  1.0000000 )       (  0.0000000 )


      isym =  3     180 deg rotation - cart. axis [0,1,0]        

 cryst.   s( 3) = (    -1          0          0      )    f =(  0.0000000 )
                  (    -1          0          1      )       (  0.0000000 )
                  (    -1          1          0      )       (  0.0000000 )

 cart.    s( 3) = ( -1.0000000  0.0000000  0.0000000 )    f =(  0.0000000 )
                  (  0.0000000  1.0000000  0.0000000 )       (  0.0000000 )
                  (  0.0000000  0.0000000 -1.0000000 )       (  0.0000000 )


      isym =  4     180 deg rotation - cart. axis [1,0,0]        

 cryst.   s( 4) = (     0         -1          1      )    f =(  0.0000000 )
                  (     0         -1          0      )       (  0.0000000 )
                  (     1         -1          0      )       (  0.0000000 )

 cart.    s( 4) = (  1.0000000  0.0000000  0.0000000 )    f =(  0.0000000 )
                  (  0.0000000 -1.0000000  0.0000000 )       (  0.0000000 )
                  (  0.0000000  0.0000000 -1.0000000 )       (  0.0000000 )


      isym =  5     120 deg rotation - cart. axis [-1,-1,-1]     

 cryst.   s( 5) = (    -1          0          1      )    f =(  0.0000000 )
                  (    -1          1          0      )       (  0.0000000 )
                  (    -1          0          0      )       (  0.0000000 )

 cart.    s( 5) = (  0.0000000  1.0000000  0.0000000 )    f =(  0.0000000 )
                  (  0.0000000  0.0000000  1.0000000 )       (  0.0000000 )
                  (  1.0000000  0.0000000  0.0000000 )       (  0.0000000 )


      isym =  6     120 deg rotation - cart. axis [-1,1,1]       

 cryst.   s( 6) = (     0          1          0      )    f =(  0.0000000 )
                  (     0          0          1      )       (  0.0000000 )
                  (     1          0          0      )       (  0.0000000 )

 cart.    s( 6) = (  0.0000000 -1.0000000  0.0000000 )    f =(  0.0000000 )
                  (  0.0000000  0.0000000  1.0000000 )       (  0.0000000 )
                  ( -1.0000000  0.0000000  0.0000000 )       (  0.0000000 )


      isym =  7     120 deg rotation - cart. axis [1,1,-1]       

 cryst.   s( 7) = (     1          0         -1      )    f =(  0.0000000 )
                  (     0          0         -1      )       (  0.0000000 )
                  (     0          1         -1      )       (  0.0000000 )

 cart.    s( 7) = (  0.0000000  1.0000000  0.0000000 )    f =(  0.0000000 )
                  (  0.0000000  0.0000000 -1.0000000 )       (  0.0000000 )
                  ( -1.0000000  0.0000000  0.0000000 )       (  0.0000000 )


      isym =  8     120 deg rotation - cart. axis [1,-1,1]       

 cryst.   s( 8) = (     0         -1          0      )    f =(  0.0000000 )
                  (     1         -1          0      )       (  0.0000000 )
                  (     0         -1          1      )       (  0.0000000 )

 cart.    s( 8) = (  0.0000000 -1.0000000  0.0000000 )    f =(  0.0000000 )
                  (  0.0000000  0.0000000 -1.0000000 )       (  0.0000000 )
                  (  1.0000000  0.0000000  0.0000000 )       (  0.0000000 )


      isym =  9     120 deg rotation - cart. axis [1,1,1]        

 cryst.   s( 9) = (     0          0         -1      )    f =(  0.0000000 )
                  (     0          1         -1      )       (  0.0000000 )
                  (     1          0         -1      )       (  0.0000000 )

 cart.    s( 9) = (  0.0000000  0.0000000  1.0000000 )    f =(  0.0000000 )
                  (  1.0000000  0.0000000  0.0000000 )       (  0.0000000 )
                  (  0.0000000  1.0000000  0.0000000 )       (  0.0000000 )


      isym = 10     120 deg rotation - cart. axis [-1,1,-1]      

 cryst.   s(10) = (    -1          1          0      )    f =(  0.0000000 )
                  (    -1          0          0      )       (  0.0000000 )
                  (    -1          0          1      )       (  0.0000000 )

 cart.    s(10) = (  0.0000000  0.0000000  1.0000000 )    f =(  0.0000000 )
                  ( -1.0000000  0.0000000  0.0000000 )       (  0.0000000 )
                  (  0.0000000 -1.0000000  0.0000000 )       (  0.0000000 )


      isym = 11     120 deg rotation - cart. axis [1,-1,-1]      

 cryst.   s(11) = (     0          0          1      )    f =(  0.0000000 )
                  (     1          0          0      )       (  0.0000000 )
                  (     0          1          0      )       (  0.0000000 )

 cart.    s(11) = (  0.0000000  0.0000000 -1.0000000 )    f =(  0.0000000 )
                  ( -1.0000000  0.0000000  0.0000000 )       (  0.0000000 )
                  (  0.0000000  1.0000000  0.0000000 )       (  0.0000000 )


      isym = 12     120 deg rotation - cart. axis [-1,-1,1]      

 cryst.   s(12) = (     1         -1          0      )    f =(  0.0000000 )
                  (     0         -1          1      )       (  0.0000000 )
                  (     0         -1          0      )       (  0.0000000 )

 cart.    s(12) = (  0.0000000  0.0000000 -1.0000000 )    f =(  0.0000000 )
                  (  1.0000000  0.0000000  0.0000000 )       (  0.0000000 )
                  (  0.0000000 -1.0000000  0.0000000 )       (  0.0000000 )


      isym = 13     inv. 180 deg rotation - cart. axis [1,1,0]   

 cryst.   s(13) = (     0          1          0      )    f =(  0.0000000 )
                  (     1          0          0      )       (  0.0000000 )
                  (     0          0          1      )       (  0.0000000 )

 cart.    s(13) = (  0.0000000 -1.0000000  0.0000000 )    f =(  0.0000000 )
                  ( -1.0000000  0.0000000  0.0000000 )       (  0.0000000 )
                  (  0.0000000  0.0000000  1.0000000 )       (  0.0000000 )


      isym = 14     inv. 180 deg rotation - cart. axis [1,-1,0]  

 cryst.   s(14) = (     1          0         -1      )    f =(  0.0000000 )
                  (     0          1         -1      )       (  0.0000000 )
                  (     0          0         -1      )       (  0.0000000 )

 cart.    s(14) = (  0.0000000  1.0000000  0.0000000 )    f =(  0.0000000 )
                  (  1.0000000  0.0000000  0.0000000 )       (  0.0000000 )
                  (  0.0000000  0.0000000  1.0000000 )       (  0.0000000 )


      isym = 15     inv.  90 deg rotation - cart. axis [0,0,-1]  

 cryst.   s(15) = (     0         -1          0      )    f =(  0.0000000 )
                  (     0         -1          1      )       (  0.0000000 )
                  (     1         -1          0      )       (  0.0000000 )

 cart.    s(15) = (  0.0000000 -1.0000000  0.0000000 )    f =(  0.0000000 )
                  (  1.0000000  0.0000000  0.0000000 )       (  0.0000000 )
                  (  0.0000000  0.0000000 -1.0000000 )       (  0.0000000 )


      isym = 16     inv.  90 deg rotation - cart. axis [0,0,1]   

 cryst.   s(16) = (    -1          0          1      )    f =(  0.0000000 )
                  (    -1          0          0      )       (  0.0000000 )
                  (    -1          1          0      )       (  0.0000000 )

 cart.    s(16) = (  0.0000000  1.0000000  0.0000000 )    f =(  0.0000000 )
                  ( -1.0000000  0.0000000  0.0000000 )       (  0.0000000 )
                  (  0.0000000  0.0000000 -1.0000000 )       (  0.0000000 )


      isym = 17     inv. 180 deg rotation - cart. axis [1,0,1]   

 cryst.   s(17) = (     1          0          0      )    f =(  0.0000000 )
                  (     0          0          1      )       (  0.0000000 )
                  (     0          1          0      )       (  0.0000000 )

 cart.    s(17) = (  0.0000000  0.0000000 -1.0000000 )    f =(  0.0000000 )
                  (  0.0000000  1.0000000  0.0000000 )       (  0.0000000 )
                  ( -1.0000000  0.0000000  0.0000000 )       (  0.0000000 )


      isym = 18     inv. 180 deg rotation - cart. axis [-1,0,1]  

 cryst.   s(18) = (    -1          0          0      )    f =(  0.0000000 )
                  (    -1          1          0      )       (  0.0000000 )
                  (    -1          0          1      )       (  0.0000000 )

 cart.    s(18) = (  0.0000000  0.0000000  1.0000000 )    f =(  0.0000000 )
                  (  0.0000000  1.0000000  0.0000000 )       (  0.0000000 )
                  (  1.0000000  0.0000000  0.0000000 )       (  0.0000000 )


      isym = 19     inv.  90 deg rotation - cart. axis [0,1,0]   

 cryst.   s(19) = (     0         -1          1      )    f =(  0.0000000 )
                  (     1         -1          0      )       (  0.0000000 )
                  (     0         -1          0      )       (  0.0000000 )

 cart.    s(19) = (  0.0000000  0.0000000 -1.0000000 )    f =(  0.0000000 )
                  (  0.0000000 -1.0000000  0.0000000 )       (  0.0000000 )
                  (  1.0000000  0.0000000  0.0000000 )       (  0.0000000 )


      isym = 20     inv.  90 deg rotation - cart. axis [0,-1,0]  

 cryst.   s(20) = (     0          1         -1      )    f =(  0.0000000 )
                  (     0          0         -1      )       (  0.0000000 )
                  (     1          0         -1      )       (  0.0000000 )

 cart.    s(20) = (  0.0000000  0.0000000  1.0000000 )    f =(  0.0000000 )
                  (  0.0000000 -1.0000000  0.0000000 )       (  0.0000000 )
                  ( -1.0000000  0.0000000  0.0000000 )       (  0.0000000 )


      isym = 21     inv. 180 deg rotation - cart. axis [0,1,1]   

 cryst.   s(21) = (     1         -1          0      )    f =(  0.0000000 )
                  (     0         -1          0      )       (  0.0000000 )
                  (     0         -1          1      )       (  0.0000000 )

 cart.    s(21) = (  1.0000000  0.0000000  0.0000000 )    f =(  0.0000000 )
                  (  0.0000000  0.0000000 -1.0000000 )       (  0.0000000 )
                  (  0.0000000 -1.0000000  0.0000000 )       (  0.0000000 )


      isym = 22     inv. 180 deg rotation - cart. axis [0,1,-1]  

 cryst.   s(22) = (     0          0          1      )    f =(  0.0000000 )
                  (     0          1          0      )       (  0.0000000 )
                  (     1          0          0      )       (  0.0000000 )

 cart.    s(22) = (  1.0000000  0.0000000  0.0000000 )    f =(  0.0000000 )
                  (  0.0000000  0.0000000  1.0000000 )       (  0.0000000 )
                  (  0.0000000  1.0000000  0.0000000 )       (  0.0000000 )


      isym = 23     inv.  90 deg rotation - cart. axis [-1,0,0]  

 cryst.   s(23) = (     0          0         -1      )    f =(  0.0000000 )
                  (     1          0         -1      )       (  0.0000000 )
                  (     0          1         -1      )       (  0.0000000 )

 cart.    s(23) = ( -1.0000000  0.0000000  0.0000000 )    f =(  0.0000000 )
                  (  0.0000000  0.0000000 -1.0000000 )       (  0.0000000 )
                  (  0.0000000  1.0000000  0.0000000 )       (  0.0000000 )


      isym = 24     inv.  90 deg rotation - cart. axis [1,0,0]   

 cryst.   s(24) = (    -1          1          0      )    f =(  0.0000000 )
                  (    -1          0          1      )       (  0.0000000 )
                  (    -1          0          0      )       (  0.0000000 )

 cart.    s(24) = ( -1.0000000  0.0000000  0.0000000 )    f =(  0.0000000 )
                  (  0.0000000  0.0000000  1.0000000 )       (  0.0000000 )
                  (  0.0000000 -1.0000000  0.0000000 )       (  0.0000000 )


     point group T_d (-43m) 
     there are  5 classes
     the character table:

       E     8C3   3C2   6S4   6s_d 
A_1    1.00  1.00  1.00  1.00  1.00
A_2    1.00  1.00  1.00 -1.00 -1.00
E      2.00 -1.00  2.00  0.00  0.00
T_1    3.00  0.00 -1.00  1.00 -1.00
T_2    3.00  0.00 -1.00 -1.00  1.00

     the symmetry operations in each class:
     E        1
     3C2      2    3    4
     8C3      5    7    8    6   12    9   10   11
     6s_d    13   14   17   18   21   22
     6S4     15   16   20   19   23   24

   Cartesian axes

     site n.     atom                  positions (alat units)
         1           Si  tau(   1) = (   0.0000000   0.0000000   0.0000000  )
         2           Si  tau(   2) = (   0.2500000   0.2500000   0.2500000  )

   Crystallographic axes

     site n.     atom                  positions (cryst. coord.)
         1           Si  tau(   1) = (  0.0000000  0.0000000  0.0000000  )
         2           Si  tau(   2) = ( -0.2500000  0.7500000 -0.2500000  )

     number of k points=    16
                       cart. coord. in units 2pi/alat
        k(    1) = (   0.0000000   0.0000000   0.0000000), wk =   0.0092593
        k(    2) = (  -0.1666667   0.1666667  -0.1666667), wk =   0.0740741
        k(    3) = (  -0.3333333   0.3333333  -0.3333333), wk =   0.0740741
        k(    4) = (   0.5000000  -0.5000000   0.5000000), wk =   0.0370370
        k(    5) = (   0.0000000   0.3333333   0.0000000), wk =   0.0555556
        k(    6) = (  -0.1666667   0.5000000  -0.1666667), wk =   0.2222222
        k(    7) = (   0.6666667  -0.3333333   0.6666667), wk =   0.2222222
        k(    8) = (   0.5000000  -0.1666667   0.5000000), wk =   0.2222222
        k(    9) = (   0.3333333   0.0000000   0.3333333), wk =   0.1111111
        k(   10) = (   0.0000000   0.6666667   0.0000000), wk =   0.0555556
        k(   11) = (   0.8333333  -0.1666667   0.8333333), wk =   0.2222222
        k(   12) = (   0.6666667  -0.0000000   0.6666667), wk =   0.1111111
        k(   13) = (   0.0000000  -1.0000000   0.0000000), wk =   0.0277778
        k(   14) = (   0.6666667  -0.3333333   1.0000000), wk =   0.2222222
        k(   15) = (   0.5000000  -0.1666667   0.8333333), wk =   0.2222222
        k(   16) = (  -0.3333333  -1.0000000   0.0000000), wk =   0.1111111

                       cryst. coord.
        k(    1) = (   0.0000000   0.0000000   0.0000000), wk =   0.0092593
        k(    2) = (   0.0000000   0.0000000   0.1666667), wk =   0.0740741
        k(    3) = (   0.0000000   0.0000000   0.3333333), wk =   0.0740741
        k(    4) = (   0.0000000   0.0000000  -0.5000000), wk =   0.0370370
        k(    5) = (   0.0000000   0.1666667   0.1666667), wk =   0.0555556
        k(    6) = (   0.0000000   0.1666667   0.3333333), wk =   0.2222222
        k(    7) = (   0.0000000   0.1666667  -0.5000000), wk =   0.2222222
        k(    8) = (   0.0000000   0.1666667  -0.3333333), wk =   0.2222222
        k(    9) = (   0.0000000   0.1666667  -0.1666667), wk =   0.1111111
        k(   10) = (   0.0000000   0.3333333   0.3333333), wk =   0.0555556
        k(   11) = (   0.0000000   0.3333333  -0.5000000), wk =   0.2222222
        k(   12) = (   0.0000000   0.3333333  -0.3333333), wk =   0.1111111
        k(   13) = (   0.0000000  -0.5000000  -0.5000000), wk =   0.0277778
        k(   14) = (   0.1666667   0.3333333  -0.5000000), wk =   0.2222222
        k(   15) = (   0.1666667   0.3333333  -0.3333333), wk =   0.2222222
        k(   16) = (   0.1666667  -0.5000000  -0.3333333), wk =   0.1111111

     Dense  grid:     2085 G-vectors     FFT dimensions: (  18,  18,  18)

     Largest allocated arrays     est. size (Mb)     dimensions
        Kohn-Sham Wavefunctions         0.21 Mb     (    269,   50)
        NL pseudopotentials             0.03 Mb     (    269,    8)
        Each V/rho on FFT grid          0.09 Mb     (   5832)
        Each G-vector array             0.02 Mb     (   2085)
        G-vector shells                 0.00 Mb     (     54)
     Largest temporary arrays     est. size (Mb)     dimensions
        Auxiliary wavefunctions         0.82 Mb     (    269,  200)
        Each subspace H/S matrix        0.61 Mb     ( 200, 200)
        Each <psi_i|beta_j> matrix      0.01 Mb     (      8,   50)
        Arrays for rho mixing           0.71 Mb     (   5832,   8)

     Initial potential from superposition of free atoms

     starting charge    7.99901, renormalised to    8.00000
     Starting wfc are    8 atomic +   42 random wfc

     total cpu time spent up to now is        1.5 secs

     per-process dynamical memory:     4.6 Mb

     Self-consistent Calculation

     iteration #  1     ecut=    15.00 Ry     beta=0.70
     Davidson diagonalization with overlap
     ethr =  1.00E-02,  avg # of iterations =  4.0

     Threshold (ethr) on eigenvalues was too large:
     Diagonalizing with lowered threshold

     Davidson diagonalization with overlap
     ethr =  7.92E-04,  avg # of iterations =  1.0

     total cpu time spent up to now is       10.5 secs

     total energy              =     -15.82886511 Ry
     Harris-Foulkes estimate   =     -15.85068781 Ry
     estimated scf accuracy    <       0.06336656 Ry

     iteration #  2     ecut=    15.00 Ry     beta=0.70
     Davidson diagonalization with overlap
     ethr =  7.92E-04,  avg # of iterations =  1.1

     total cpu time spent up to now is       12.9 secs

     total energy              =     -15.83273769 Ry
     Harris-Foulkes estimate   =     -15.83295029 Ry
     estimated scf accuracy    <       0.00174889 Ry

     iteration #  3     ecut=    15.00 Ry     beta=0.70
     Davidson diagonalization with overlap
     ethr =  2.19E-05,  avg # of iterations =  3.3

     total cpu time spent up to now is       16.4 secs

     total energy              =     -15.83274435 Ry
     Harris-Foulkes estimate   =     -15.83275001 Ry
     estimated scf accuracy    <       0.00005964 Ry

     iteration #  4     ecut=    15.00 Ry     beta=0.70
     Davidson diagonalization with overlap
     ethr =  7.45E-07,  avg # of iterations =  3.7

     total cpu time spent up to now is       20.4 secs

     total energy              =     -15.83274476 Ry
     Harris-Foulkes estimate   =     -15.83274474 Ry
     estimated scf accuracy    <       0.00000002 Ry

     iteration #  5     ecut=    15.00 Ry     beta=0.70
     Davidson diagonalization with overlap
     ethr =  2.21E-10,  avg # of iterations =  5.1

     total cpu time spent up to now is       27.6 secs

     End of self-consistent calculation

          k = 0.0000 0.0000 0.0000 (   259 PWs)   bands (ev):

    -5.7530   6.3219   6.3219   6.3219   8.8947   8.8947   8.8947   9.8542
    14.1072  14.2358  14.2358  17.6023  17.6023  17.6023  21.5061  29.7850
    29.7850  29.7850  31.2232  31.2232  32.1790  32.1790  32.1790  36.1769
    36.1769  36.1769  41.0301  41.8297  41.8297  41.8297  45.7570  45.7570
    47.8504  47.8504  48.0059  48.4313  48.4313  48.4313  49.2788  50.9022
    50.9022  50.9022  51.8814  51.8814  51.8814  52.1778  52.1778  52.1778
    53.4846  53.4846

     occupation numbers 
     0.0093   0.0093   0.0093   0.0093   0.0000   0.0000   0.0000   0.0000
     0.0000   0.0000   0.0000   0.0000   0.0000   0.0000   0.0000   0.0000
     0.0000   0.0000   0.0000   0.0000   0.0000   0.0000   0.0000   0.0000
     0.0000   0.0000   0.0000   0.0000   0.0000   0.0000   0.0000   0.0000
     0.0000   0.0000   0.0000   0.0000   0.0000   0.0000   0.0000   0.0000
     0.0000   0.0000   0.0000   0.0000   0.0000   0.0000   0.0000   0.0000
     0.0000   0.0000

          k =-0.1667 0.1667-0.1667 (   268 PWs)   bands (ev):

    -5.4010   3.9205   5.8529   5.8529   8.7265   9.5565   9.5565  11.8607
    13.5401  13.5401  15.2814  16.9404  19.5713  19.5713  23.5840  26.5538
    26.5538  27.0269  30.6279  30.6279  32.9388  32.9388  34.1980  36.5021
    37.9027  39.3812  39.3812  40.8566  40.8566  42.4998  42.4998  42.5566
    44.9222  44.9222  45.6324  47.7985  48.2348  48.3082  48.3082  49.5852
    50.9727  50.9727  51.1653  52.2796  52.2796  53.2144  55.4367  55.4367
    55.4814  55.8392

     occupation numbers 
     0.0741   0.0741   0.0741   0.0741   0.0000   0.0000   0.0000   0.0000
     0.0000   0.0000   0.0000   0.0000   0.0000   0.0000   0.0000   0.0000
     0.0000   0.0000   0.0000   0.0000   0.0000   0.0000   0.0000   0.0000
     0.0000   0.0000   0.0000   0.0000   0.0000   0.0000   0.0000   0.0000
     0.0000   0.0000   0.0000   0.0000   0.0000   0.0000   0.0000   0.0000
     0.0000   0.0000   0.0000   0.0000   0.0000   0.0000   0.0000   0.0000
     0.0000   0.0000

          k =-0.3333 0.3333-0.3333 (   256 PWs)   bands (ev):

    -4.3556   0.9158   5.2940   5.2940   8.1513   9.8565   9.8565  14.1136
    14.4612  14.4612  15.4168  19.9216  21.2167  21.2167  23.2288  24.1954
    24.1954  28.2018  30.7680  30.7680  31.8174  33.4645  33.4645  35.8316
    36.0978  36.0978  37.3826  39.6041  39.6041  40.7618  40.7618  41.6924
    43.4484  44.8399  47.1715  47.5738  47.5738  47.9792  48.1185  48.1185
    50.4154  50.6662  50.6662  55.7269  55.7269  56.7771  57.3031  57.7221
    57.7221  60.7782

     occupation numbers 
     0.0741   0.0741   0.0741   0.0741   0.0000   0.0000   0.0000   0.0000
     0.0000   0.0000   0.0000   0.0000   0.0000   0.0000   0.0000   0.0000
     0.0000   0.0000   0.0000   0.0000   0.0000   0.0000   0.0000   0.0000
     0.0000   0.0000   0.0000   0.0000   0.0000   0.0000   0.0000   0.0000
     0.0000   0.0000   0.0000   0.0000   0.0000   0.0000   0.0000   0.0000
     0.0000   0.0000   0.0000   0.0000   0.0000   0.0000   0.0000   0.0000
     0.0000   0.0000

          k = 0.5000-0.5000 0.5000 (   266 PWs)   bands (ev):

    -3.3630  -0.7738   5.0893   5.0893   7.9285   9.6713   9.6713  13.9134
    17.1130  17.1130  17.6595  17.8213  17.8213  19.3441  25.8065  26.4084
    28.2463  28.2463  28.4770  28.4770  32.1335  33.1630  33.1630  34.0092
    34.0092  34.6995  38.0277  38.7965  38.9948  38.9948  39.6670  39.6670
    42.0155  43.3304  47.7239  47.7951  47.7951  49.4263  49.4263  49.8112
    50.8418  54.2626  54.2626  55.7227  55.7408  55.7408  58.9883  59.9570
    59.9570  60.8072

     occupation numbers 
     0.0370   0.0370   0.0370   0.0370   0.0000   0.0000   0.0000   0.0000
     0.0000   0.0000   0.0000   0.0000   0.0000   0.0000   0.0000   0.0000
     0.0000   0.0000   0.0000   0.0000   0.0000   0.0000   0.0000   0.0000
     0.0000   0.0000   0.0000   0.0000   0.0000   0.0000   0.0000   0.0000
     0.0000   0.0000   0.0000   0.0000   0.0000   0.0000   0.0000   0.0000
     0.0000   0.0000   0.0000   0.0000   0.0000   0.0000   0.0000   0.0000
     0.0000   0.0000

          k = 0.0000 0.3333 0.0000 (   266 PWs)   bands (ev):

    -5.2704   4.3211   5.0859   5.0859   7.9893  10.6766  10.7227  10.7227
    13.0512  14.7833  15.9547  18.4624  18.4624  19.0296  24.7243  26.0057
    26.0057  27.4363  28.3917  30.4392  33.1927  33.7422  33.7422  38.6916
    38.6916  38.9372  39.4555  39.4555  39.9862  40.3177  42.3148  43.6542
    44.8087  45.7999  46.2624  46.2624  47.4989  48.6176  48.6176  50.4386
    50.4386  50.9935  51.5514  52.8652  53.0313  53.8368  53.8368  54.2066
    55.7469  55.7469

     occupation numbers 
     0.0556   0.0556   0.0556   0.0556   0.0000   0.0000   0.0000   0.0000
     0.0000   0.0000   0.0000   0.0000   0.0000   0.0000   0.0000   0.0000
     0.0000   0.0000   0.0000   0.0000   0.0000   0.0000   0.0000   0.0000
     0.0000   0.0000   0.0000   0.0000   0.0000   0.0000   0.0000   0.0000
     0.0000   0.0000   0.0000   0.0000   0.0000   0.0000   0.0000   0.0000
     0.0000   0.0000   0.0000   0.0000   0.0000   0.0000   0.0000   0.0000
     0.0000   0.0000

          k =-0.1667 0.5000-0.1667 (   259 PWs)   bands (ev):

    -4.4359   1.8627   4.2825   4.5243   8.2623  10.4330  10.8888  11.4654
    15.5607  15.5986  16.6994  19.1955  20.2897  21.8200  22.5005  23.4460
    26.4019  27.3002  28.2439  29.8441  32.1086  33.1098  34.1686  36.1448
    36.4648  36.6869  38.5841  39.2506  39.8048  41.0331  42.4473  42.9338
    43.4800  44.6356  45.1187  46.6805  47.2143  48.0534  48.5572  50.8236
    50.8934  51.6962  52.3799  52.6292  53.0800  54.5009  56.5763  57.6725
    58.0560  58.4663

     occupation numbers 
     0.2222   0.2222   0.2222   0.2222   0.0000   0.0000   0.0000   0.0000
     0.0000   0.0000   0.0000   0.0000   0.0000   0.0000   0.0000   0.0000
     0.0000   0.0000   0.0000   0.0000   0.0000   0.0000   0.0000   0.0000
     0.0000   0.0000   0.0000   0.0000   0.0000   0.0000   0.0000   0.0000
     0.0000   0.0000   0.0000   0.0000   0.0000   0.0000   0.0000   0.0000
     0.0000   0.0000   0.0000   0.0000   0.0000   0.0000   0.0000   0.0000
     0.0000   0.0000

          k = 0.6667-0.3333 0.6667 (   259 PWs)   bands (ev):

    -3.2039  -0.3713   3.4843   4.4919   8.3513  10.4810  10.9980  12.7943
    15.7404  17.0121  18.1539  18.3727  19.0759  22.6334  24.4193  25.5957
    26.6591  27.2120  27.7612  29.4042  30.5013  32.6974  33.6672  33.9560
    34.2293  36.0984  36.4887  36.9558  38.6996  40.6399  41.3202  41.5507
    42.6229  43.9667  45.8444  46.5779  48.4550  49.2197  51.5040  52.0599
    52.6214  53.8727  53.9631  54.2928  55.0081  55.5203  56.0534  57.6179
    57.9330  60.7891

     occupation numbers 
     0.2222   0.2222   0.2222   0.2222   0.0000   0.0000   0.0000   0.0000
     0.0000   0.0000   0.0000   0.0000   0.0000   0.0000   0.0000   0.0000
     0.0000   0.0000   0.0000   0.0000   0.0000   0.0000   0.0000   0.0000
     0.0000   0.0000   0.0000   0.0000   0.0000   0.0000   0.0000   0.0000
     0.0000   0.0000   0.0000   0.0000   0.0000   0.0000   0.0000   0.0000
     0.0000   0.0000   0.0000   0.0000   0.0000   0.0000   0.0000   0.0000
     0.0000   0.0000

          k = 0.5000-0.1667 0.5000 (   258 PWs)   bands (ev):

    -3.6055   0.2487   3.1959   4.9870   8.7914  10.4713  10.5933  13.6537
    13.7790  15.7736  17.8482  19.2982  21.2993  22.0168  22.7595  24.4212
    26.5971  28.5467  28.7067  29.5160  31.4022  31.4834  33.7213  34.3294
    34.6448  35.1654  36.4280  38.7839  40.1132  40.7522  41.4786  41.8064
    43.3122  43.8881  45.2484  46.9502  47.7723  47.8902  49.1572  49.7669
    52.3714  54.0434  54.4891  54.9768  55.6064  56.5295  56.7995  58.6127
    58.7211  60.6479

     occupation numbers 
     0.2222   0.2222   0.2222   0.2222   0.0000   0.0000   0.0000   0.0000
     0.0000   0.0000   0.0000   0.0000   0.0000   0.0000   0.0000   0.0000
     0.0000   0.0000   0.0000   0.0000   0.0000   0.0000   0.0000   0.0000
     0.0000   0.0000   0.0000   0.0000   0.0000   0.0000   0.0000   0.0000
     0.0000   0.0000   0.0000   0.0000   0.0000   0.0000   0.0000   0.0000
     0.0000   0.0000   0.0000   0.0000   0.0000   0.0000   0.0000   0.0000
     0.0000   0.0000

          k = 0.3333 0.0000 0.3333 (   269 PWs)   bands (ev):

    -4.8002   2.5946   3.8246   5.7396   9.4259   9.9057  10.1874  12.0275
    12.5130  15.8524  16.7391  17.8748  19.7976  22.0661  22.5969  25.1729
    27.0518  27.3162  27.5212  29.0881  32.9760  33.4310  34.9726  36.1591
    37.3698  37.5399  38.1695  40.7671  40.9416  41.1549  41.3856  42.3605
    44.0552  44.7710  45.2910  45.7035  46.7993  47.5751  47.9313  49.6286
    49.7655  51.3464  51.6057  54.1253  54.2736  55.5388  55.6120  55.9632
    56.8878  59.5927

     occupation numbers 
     0.1111   0.1111   0.1111   0.1111   0.0000   0.0000   0.0000   0.0000
     0.0000   0.0000   0.0000   0.0000   0.0000   0.0000   0.0000   0.0000
     0.0000   0.0000   0.0000   0.0000   0.0000   0.0000   0.0000   0.0000
     0.0000   0.0000   0.0000   0.0000   0.0000   0.0000   0.0000   0.0000
     0.0000   0.0000   0.0000   0.0000   0.0000   0.0000   0.0000   0.0000
     0.0000   0.0000   0.0000   0.0000   0.0000   0.0000   0.0000   0.0000
     0.0000   0.0000

          k = 0.0000 0.6667 0.0000 (   250 PWs)   bands (ev):

    -3.8131   1.3276   3.8343   3.8343   6.9823   8.2679  13.7000  13.7000
    16.2601  16.4544  19.3546  20.0435  20.0435  21.5086  22.7990  22.7990
    22.8875  25.4641  29.6079  31.1998  32.1742  32.1742  32.9929  34.2545
    34.5973  35.5585  35.5585  40.8689  42.4722  42.4722  42.6674  43.5834
    44.0295  45.6047  45.6047  47.0141  47.0141  47.5695  49.5879  50.1987
    50.2319  50.2319  50.9188  52.2513  55.5465  55.9300  55.9300  56.4448
    58.8094  60.9162

     occupation numbers 
     0.0556   0.0556   0.0556   0.0556   0.0000   0.0000   0.0000   0.0000
     0.0000   0.0000   0.0000   0.0000   0.0000   0.0000   0.0000   0.0000
     0.0000   0.0000   0.0000   0.0000   0.0000   0.0000   0.0000   0.0000
     0.0000   0.0000   0.0000   0.0000   0.0000   0.0000   0.0000   0.0000
     0.0000   0.0000   0.0000   0.0000   0.0000   0.0000   0.0000   0.0000
     0.0000   0.0000   0.0000   0.0000   0.0000   0.0000   0.0000   0.0000
     0.0000   0.0000

          k = 0.8333-0.1667 0.8333 (   251 PWs)   bands (ev):

    -2.6211  -0.2535   2.5665   3.6939   7.3251   9.0180  13.8910  13.8996
    17.0571  17.2325  18.9183  19.3032  21.0756  22.2801  22.6315  25.1097
    25.2222  25.9760  27.1349  29.1715  29.8389  30.2110  31.0918  33.3380
    35.7946  36.0524  38.3689  38.5694  38.9835  41.2700  42.2946  42.5474
    43.3830  45.4601  46.8088  47.0691  47.2561  48.0053  50.6918  50.7970
    51.6469  52.2802  54.2495  54.6832  55.6056  55.9501  57.0384  57.8679
    57.9636  60.2719

     occupation numbers 
     0.2222   0.2222   0.2222   0.2222   0.0000   0.0000   0.0000   0.0000
     0.0000   0.0000   0.0000   0.0000   0.0000   0.0000   0.0000   0.0000
     0.0000   0.0000   0.0000   0.0000   0.0000   0.0000   0.0000   0.0000
     0.0000   0.0000   0.0000   0.0000   0.0000   0.0000   0.0000   0.0000
     0.0000   0.0000   0.0000   0.0000   0.0000   0.0000   0.0000   0.0000
     0.0000   0.0000   0.0000   0.0000   0.0000   0.0000   0.0000   0.0000
     0.0000   0.0000

          k = 0.6667-0.0000 0.6667 (   256 PWs)   bands (ev):

    -2.4158  -0.4720   1.7525   4.1482   7.8487  12.1473  12.8943  13.4903
    13.8137  14.1303  20.7557  21.2816  22.1679  22.3928  23.2341  24.1821
    24.8978  26.4208  28.7881  29.2570  29.4626  30.2664  33.2765  33.5650
    34.0840  34.8292  35.8698  36.1229  41.2645  41.4097  41.7548  42.1419
    43.4097  44.3479  45.2443  46.6625  49.3808  49.3863  50.3726  50.9745
    53.0941  53.6493  54.4109  54.9971  55.4718  56.0612  58.1467  58.2079
    58.9321  60.6151

     occupation numbers 
     0.1111   0.1111   0.1111   0.1111   0.0000   0.0000   0.0000   0.0000
     0.0000   0.0000   0.0000   0.0000   0.0000   0.0000   0.0000   0.0000
     0.0000   0.0000   0.0000   0.0000   0.0000   0.0000   0.0000   0.0000
     0.0000   0.0000   0.0000   0.0000   0.0000   0.0000   0.0000   0.0000
     0.0000   0.0000   0.0000   0.0000   0.0000   0.0000   0.0000   0.0000
     0.0000   0.0000   0.0000   0.0000   0.0000   0.0000   0.0000   0.0000
     0.0000   0.0000

          k = 0.0000-1.0000 0.0000 (   254 PWs)   bands (ev):

    -1.5277  -1.5277   3.3866   3.3866   6.9535   6.9535  16.5452  16.5452
    17.5488  17.5488  19.1528  19.1528  19.3898  19.3899  25.3295  25.3295
    26.1683  26.1683  26.8103  26.8103  27.7516  27.7517  32.2600  32.2600
    36.2651  36.2651  40.6952  40.6954  40.7883  40.7883  42.9240  42.9240
    43.1202  43.1209  46.4606  46.4606  47.7183  47.7183  48.4216  48.4217
    52.4155  52.4155  54.0862  54.0882  56.4955  56.4955  58.0835  58.0835
    61.5306  61.5310

     occupation numbers 
     0.0278   0.0278   0.0278   0.0278   0.0000   0.0000   0.0000   0.0000
     0.0000   0.0000   0.0000   0.0000   0.0000   0.0000   0.0000   0.0000
     0.0000   0.0000   0.0000   0.0000   0.0000   0.0000   0.0000   0.0000
     0.0000   0.0000   0.0000   0.0000   0.0000   0.0000   0.0000   0.0000
     0.0000   0.0000   0.0000   0.0000   0.0000   0.0000   0.0000   0.0000
     0.0000   0.0000   0.0000   0.0000   0.0000   0.0000   0.0000   0.0000
     0.0000   0.0000

          k = 0.6667-0.3333 1.0000 (   260 PWs)   bands (ev):

    -3.4238   0.6718   2.6334   3.9513   9.1676  10.0146  10.6226  13.4898
    15.4741  16.3329  19.4601  19.7054  20.2643  21.4342  23.0506  24.4207
    26.1367  27.5450  27.5863  29.2726  30.5960  31.0070  33.1634  34.2013
    34.6990  36.8162  37.9719  38.4313  39.1928  39.4904  40.1857  43.4652
    44.5853  45.5728  46.4944  46.6838  48.1009  48.1957  49.2791  49.8512
    51.7958  52.3398  52.9088  54.7566  55.2639  56.1301  56.6293  57.9412
    58.1044  59.6697

     occupation numbers 
     0.2222   0.2222   0.2222   0.2222   0.0000   0.0000   0.0000   0.0000
     0.0000   0.0000   0.0000   0.0000   0.0000   0.0000   0.0000   0.0000
     0.0000   0.0000   0.0000   0.0000   0.0000   0.0000   0.0000   0.0000
     0.0000   0.0000   0.0000   0.0000   0.0000   0.0000   0.0000   0.0000
     0.0000   0.0000   0.0000   0.0000   0.0000   0.0000   0.0000   0.0000
     0.0000   0.0000   0.0000   0.0000   0.0000   0.0000   0.0000   0.0000
     0.0000   0.0000

          k = 0.5000-0.1667 0.8333 (   258 PWs)   bands (ev):

    -2.3998  -0.5657   2.1867   3.4646   9.6476   9.9145  12.4706  12.9170
    13.9942  17.6113  18.4289  19.8302  22.7736  23.3718  23.5702  24.4474
    25.0078  27.1081  27.5110  28.2694  29.5421  32.1228  32.3685  32.4847
    34.5477  36.1842  37.0250  37.4948  37.9392  38.9032  40.2242  42.8666
    44.8940  46.3694  46.9452  47.9715  49.2168  49.4913  49.5892  50.4802
    51.5524  52.1274  53.4112  54.7342  55.6262  56.0538  58.3139  58.7930
    60.1903  61.0288

     occupation numbers 
     0.2222   0.2222   0.2222   0.2222   0.0000   0.0000   0.0000   0.0000
     0.0000   0.0000   0.0000   0.0000   0.0000   0.0000   0.0000   0.0000
     0.0000   0.0000   0.0000   0.0000   0.0000   0.0000   0.0000   0.0000
     0.0000   0.0000   0.0000   0.0000   0.0000   0.0000   0.0000   0.0000
     0.0000   0.0000   0.0000   0.0000   0.0000   0.0000   0.0000   0.0000
     0.0000   0.0000   0.0000   0.0000   0.0000   0.0000   0.0000   0.0000
     0.0000   0.0000

          k =-0.3333-1.0000 0.0000 (   258 PWs)   bands (ev):

    -1.3998  -1.3998   2.5495   2.5495   9.0467   9.0467  13.1653  13.1653
    17.0708  17.0708  19.4611  19.4611  22.9667  22.9667  23.7719  23.7719
    25.1985  25.1985  28.0738  28.0738  29.7588  29.7589  31.4139  31.4139
    36.0632  36.0634  37.5081  37.5081  39.0977  39.0977  43.4912  43.4914
    44.2016  44.2016  46.9883  46.9887  48.6180  48.6185  50.0808  50.0808
    52.7428  52.7438  55.3585  55.3588  55.6284  55.6284  57.8904  57.8904
    58.7329  58.7331

     occupation numbers 
     0.1111   0.1111   0.1111   0.1111   0.0000   0.0000   0.0000   0.0000
     0.0000   0.0000   0.0000   0.0000   0.0000   0.0000   0.0000   0.0000
     0.0000   0.0000   0.0000   0.0000   0.0000   0.0000   0.0000   0.0000
     0.0000   0.0000   0.0000   0.0000   0.0000   0.0000   0.0000   0.0000
     0.0000   0.0000   0.0000   0.0000   0.0000   0.0000   0.0000   0.0000
     0.0000   0.0000   0.0000   0.0000   0.0000   0.0000   0.0000   0.0000
     0.0000   0.0000

     highest occupied, lowest unoccupied level (ev):     6.3219    6.9535

!    total energy              =     -15.83274476 Ry
     Harris-Foulkes estimate   =     -15.83274476 Ry
     estimated scf accuracy    <          5.6E-11 Ry

     The total energy is the sum of the following terms:

     one-electron contribution =       4.84056664 Ry
     hartree contribution      =       1.07387377 Ry
     xc contribution           =      -4.81921330 Ry
     ewald contribution        =     -16.92797188 Ry

     convergence has been achieved in   5 iterations

     Forces acting on atoms (Ry/au):

     atom    1 type  1   force =     0.00000000    0.00000000    0.00000000
     atom    2 type  1   force =     0.00000000    0.00000000   -0.00000000
     The non-local contrib.  to forces
     atom    1 type  1   force =     0.00000000   -0.00000000    0.00000000
     atom    2 type  1   force =    -0.00000000   -0.00000000   -0.00000000
     The ionic contribution  to forces
     atom    1 type  1   force =    -0.00000000   -0.00000000   -0.00000000
     atom    2 type  1   force =    -0.00000000    0.00000000   -0.00000000
     The local contribution  to forces
     atom    1 type  1   force =     0.00000000   -0.00000000   -0.00000000
     atom    2 type  1   force =    -0.00000000   -0.00000000    0.00000000
     The core correction contribution to forces
     atom    1 type  1   force =     0.00000000    0.00000000    0.00000000
     atom    2 type  1   force =     0.00000000    0.00000000    0.00000000
     The Hubbard contrib.    to forces
     atom    1 type  1   force =     0.00000000    0.00000000    0.00000000
     atom    2 type  1   force =     0.00000000    0.00000000    0.00000000
     The SCF correction term to forces
     atom    1 type  1   force =    -0.00000000    0.00000000   -0.00000000
     atom    2 type  1   force =     0.00000000   -0.00000000    0.00000000

     Total force =     0.000000     Total SCF correction =     0.000000


     entering subroutine stress ...

          total   stress  (Ry/bohr**3)                   (kbar)     P=  -15.04
  -0.00010226   0.00000000   0.00000000        -15.04      0.00      0.00
   0.00000000  -0.00010226  -0.00000000          0.00    -15.04     -0.00
   0.00000000  -0.00000000  -0.00010226          0.00     -0.00    -15.04

     kinetic stress (kbar)   2301.64      0.00      0.00
                                0.00   2301.64     -0.00
                               -0.00     -0.00   2301.64

     local   stress (kbar)  -1426.01     -0.00     -0.00
                               -0.00  -1426.01     -0.00
                               -0.00     -0.00  -1426.01

     nonloc. stress (kbar)   2870.63      0.00     -0.00
                                0.00   2870.63      0.00
                               -0.00     -0.00   2870.63

     hartree stress (kbar)    199.48     -0.00     -0.00
                               -0.00    199.48      0.00
                               -0.00      0.00    199.48

     exc-cor stress (kbar)   -816.34      0.00      0.00
                                0.00   -816.34      0.00
                                0.00      0.00   -816.34

     corecor stress (kbar)      0.00      0.00      0.00
                                0.00      0.00      0.00
                                0.00      0.00      0.00

     ewald   stress (kbar)  -3144.45      0.00      0.00
                                0.00  -3144.45      0.00
                                0.00      0.00  -3144.45

     hubbard stress (kbar)      0.00      0.00      0.00
                                0.00      0.00      0.00
                                0.00      0.00      0.00

     london  stress (kbar)      0.00      0.00      0.00
                                0.00      0.00      0.00
                                0.00      0.00      0.00

     dft-nl  stress (kbar)      0.00      0.00      0.00
                                0.00      0.00      0.00
                                0.00      0.00      0.00



     Writing output data file Si_e15.0_k6_nb50_gamma.save

     init_run     :      1.12s CPU      1.27s WALL (       1 calls)
     electrons    :     26.22s CPU     26.11s WALL (       1 calls)
     forces       :      0.09s CPU      0.15s WALL (       1 calls)
     stress       :      0.17s CPU      0.22s WALL (       1 calls)

     Called by init_run:
     wfcinit      :      0.98s CPU      1.08s WALL (       1 calls)
     potinit      :      0.01s CPU      0.02s WALL (       1 calls)

     Called by electrons:
     c_bands      :     24.43s CPU     24.15s WALL (       6 calls)
     sum_band     :      1.76s CPU      1.91s WALL (       6 calls)
     v_of_rho     :      0.02s CPU      0.02s WALL (       6 calls)
     v_h          :      0.01s CPU      0.00s WALL (       6 calls)
     v_xc         :      0.01s CPU      0.01s WALL (       6 calls)
     mix_rho      :      0.00s CPU      0.01s WALL (       6 calls)

     Called by c_bands:
     init_us_2    :      0.04s CPU      0.08s WALL (     240 calls)
     cegterg      :     24.32s CPU     24.01s WALL (      96 calls)

     Called by sum_band:

     Called by *egterg:
     h_psi        :      9.79s CPU     10.12s WALL (     404 calls)
     g_psi        :      0.10s CPU      0.08s WALL (     292 calls)
     cdiaghg      :     10.22s CPU     10.59s WALL (     372 calls)
     cegterg:over :      1.90s CPU      1.50s WALL (     292 calls)
     cegterg:upda :      1.27s CPU      1.01s WALL (     292 calls)
     cegterg:last :      0.76s CPU      0.56s WALL (     111 calls)

     Called by h_psi:
     h_psi:vloc   :      9.17s CPU      9.57s WALL (     404 calls)
     h_psi:vnl    :      0.57s CPU      0.49s WALL (     404 calls)
     add_vuspsi   :      0.21s CPU      0.18s WALL (     404 calls)

     General routines
     calbec       :      0.38s CPU      0.36s WALL (     436 calls)
     fft          :      0.02s CPU      0.06s WALL (      30 calls)
     fftw         :      9.55s CPU     10.17s WALL (   30768 calls)
     davcio       :      0.16s CPU      0.16s WALL (     352 calls)

     Parallel routines

     PWSCF        :    27.92s CPU        28.30s WALL


   This run was terminated on:  12:10:54   2Apr2012            

=------------------------------------------------------------------------------=
   JOB DONE.
=------------------------------------------------------------------------------=
