
     Program PWSCF v.4.3.2      starts on 27Mar2012 at 15: 2:14 

     This program is part of the open-source Quantum ESPRESSO suite
     for quantum simulation of materials; please cite
         "P. Giannozzi et al., J. Phys.:Condens. Matter 21 395502 (2009);
          URL http://www.quantum-espresso.org", 
     in publications or presentations arising from this work. More details at
     http://www.quantum-espresso.org/wiki/index.php/Citing_Quantum-ESPRESSO

     Parallel version (MPI), running on     1 processors

     Current dimensions of program PWSCF are:
     Max number of different atomic species (ntypx) = 10
     Max number of k-points (npk) =  40000
     Max angular momentum in pseudopotentials (lmaxx) =  3
     Waiting for input...
     Reading input from stdin

     Subspace diagonalization in iterative solution of the eigenvalue problem:
     a serial algorithm will be used


     G-vector sticks info
     --------------------
     sticks:   dense  smooth     PW     G-vecs:    dense   smooth      PW
     Sum         211     211     85                 2085     2085     531



     bravais-lattice index     =            2
     lattice parameter (alat)  =      10.1830  a.u.
     unit-cell volume          =     263.9777 (a.u.)^3
     number of atoms/cell      =            2
     number of atomic types    =            1
     number of electrons       =         8.00
     number of Kohn-Sham states=           10
     kinetic-energy cutoff     =      15.0000  Ry
     charge density cutoff     =      60.0000  Ry
     convergence threshold     =      1.0E-08
     mixing beta               =       0.7000
     number of iterations used =            8  plain     mixing
     Exchange-correlation      =  SLA  PZ   NOGX NOGC ( 1 1 0 0 0)
     EXX-fraction              =        0.00

     celldm(1)=  10.183000  celldm(2)=   0.000000  celldm(3)=   0.000000
     celldm(4)=   0.000000  celldm(5)=   0.000000  celldm(6)=   0.000000

     crystal axes: (cart. coord. in units of alat)
               a(1) = (  -0.500000   0.000000   0.500000 )  
               a(2) = (   0.000000   0.500000   0.500000 )  
               a(3) = (  -0.500000   0.500000   0.000000 )  

     reciprocal axes: (cart. coord. in units 2 pi/alat)
               b(1) = ( -1.000000 -1.000000  1.000000 )  
               b(2) = (  1.000000  1.000000  1.000000 )  
               b(3) = ( -1.000000  1.000000 -1.000000 )  


     PseudoPot. # 1 for Si read from file:
     /home/dsangalli/Personal_files/Workshop/2012_Losanna_Cecam/trunk/GW_tutorial/Si/gs/pwscf/psps/Si.vbc.UPF
     MD5 check sum: bcd8ae23180a2f07cc8655fe7dcd9644
     Pseudo is Norm-conserving, Zval =  4.0
     Generated by new atomic code, or converted to UPF format
     Using radial grid of  431 points,  2 beta functions with: 
                l(1) =   0
                l(2) =   1

     atomic species   valence    mass     pseudopotential
        Si             4.00    28.08600     Si( 1.00)

     24 Sym.Ops. (no inversion)

                                    s                        frac. trans.

      isym =  1     identity                                     

 cryst.   s( 1) = (     1          0          0      )    f =(  0.0000000 )
                  (     0          1          0      )       (  0.0000000 )
                  (     0          0          1      )       (  0.0000000 )

 cart.    s( 1) = (  1.0000000  0.0000000  0.0000000 )    f =(  0.0000000 )
                  (  0.0000000  1.0000000  0.0000000 )       (  0.0000000 )
                  (  0.0000000  0.0000000  1.0000000 )       (  0.0000000 )


      isym =  2     180 deg rotation - cart. axis [0,0,1]        

 cryst.   s( 2) = (     0          1         -1      )    f =(  0.0000000 )
                  (     1          0         -1      )       (  0.0000000 )
                  (     0          0         -1      )       (  0.0000000 )

 cart.    s( 2) = ( -1.0000000  0.0000000  0.0000000 )    f =(  0.0000000 )
                  (  0.0000000 -1.0000000  0.0000000 )       (  0.0000000 )
                  (  0.0000000  0.0000000  1.0000000 )       (  0.0000000 )


      isym =  3     180 deg rotation - cart. axis [0,1,0]        

 cryst.   s( 3) = (    -1          0          0      )    f =(  0.0000000 )
                  (    -1          0          1      )       (  0.0000000 )
                  (    -1          1          0      )       (  0.0000000 )

 cart.    s( 3) = ( -1.0000000  0.0000000  0.0000000 )    f =(  0.0000000 )
                  (  0.0000000  1.0000000  0.0000000 )       (  0.0000000 )
                  (  0.0000000  0.0000000 -1.0000000 )       (  0.0000000 )


      isym =  4     180 deg rotation - cart. axis [1,0,0]        

 cryst.   s( 4) = (     0         -1          1      )    f =(  0.0000000 )
                  (     0         -1          0      )       (  0.0000000 )
                  (     1         -1          0      )       (  0.0000000 )

 cart.    s( 4) = (  1.0000000  0.0000000  0.0000000 )    f =(  0.0000000 )
                  (  0.0000000 -1.0000000  0.0000000 )       (  0.0000000 )
                  (  0.0000000  0.0000000 -1.0000000 )       (  0.0000000 )


      isym =  5     120 deg rotation - cart. axis [-1,-1,-1]     

 cryst.   s( 5) = (    -1          0          1      )    f =(  0.0000000 )
                  (    -1          1          0      )       (  0.0000000 )
                  (    -1          0          0      )       (  0.0000000 )

 cart.    s( 5) = (  0.0000000  1.0000000  0.0000000 )    f =(  0.0000000 )
                  (  0.0000000  0.0000000  1.0000000 )       (  0.0000000 )
                  (  1.0000000  0.0000000  0.0000000 )       (  0.0000000 )


      isym =  6     120 deg rotation - cart. axis [-1,1,1]       

 cryst.   s( 6) = (     0          1          0      )    f =(  0.0000000 )
                  (     0          0          1      )       (  0.0000000 )
                  (     1          0          0      )       (  0.0000000 )

 cart.    s( 6) = (  0.0000000 -1.0000000  0.0000000 )    f =(  0.0000000 )
                  (  0.0000000  0.0000000  1.0000000 )       (  0.0000000 )
                  ( -1.0000000  0.0000000  0.0000000 )       (  0.0000000 )


      isym =  7     120 deg rotation - cart. axis [1,1,-1]       

 cryst.   s( 7) = (     1          0         -1      )    f =(  0.0000000 )
                  (     0          0         -1      )       (  0.0000000 )
                  (     0          1         -1      )       (  0.0000000 )

 cart.    s( 7) = (  0.0000000  1.0000000  0.0000000 )    f =(  0.0000000 )
                  (  0.0000000  0.0000000 -1.0000000 )       (  0.0000000 )
                  ( -1.0000000  0.0000000  0.0000000 )       (  0.0000000 )


      isym =  8     120 deg rotation - cart. axis [1,-1,1]       

 cryst.   s( 8) = (     0         -1          0      )    f =(  0.0000000 )
                  (     1         -1          0      )       (  0.0000000 )
                  (     0         -1          1      )       (  0.0000000 )

 cart.    s( 8) = (  0.0000000 -1.0000000  0.0000000 )    f =(  0.0000000 )
                  (  0.0000000  0.0000000 -1.0000000 )       (  0.0000000 )
                  (  1.0000000  0.0000000  0.0000000 )       (  0.0000000 )


      isym =  9     120 deg rotation - cart. axis [1,1,1]        

 cryst.   s( 9) = (     0          0         -1      )    f =(  0.0000000 )
                  (     0          1         -1      )       (  0.0000000 )
                  (     1          0         -1      )       (  0.0000000 )

 cart.    s( 9) = (  0.0000000  0.0000000  1.0000000 )    f =(  0.0000000 )
                  (  1.0000000  0.0000000  0.0000000 )       (  0.0000000 )
                  (  0.0000000  1.0000000  0.0000000 )       (  0.0000000 )


      isym = 10     120 deg rotation - cart. axis [-1,1,-1]      

 cryst.   s(10) = (    -1          1          0      )    f =(  0.0000000 )
                  (    -1          0          0      )       (  0.0000000 )
                  (    -1          0          1      )       (  0.0000000 )

 cart.    s(10) = (  0.0000000  0.0000000  1.0000000 )    f =(  0.0000000 )
                  ( -1.0000000  0.0000000  0.0000000 )       (  0.0000000 )
                  (  0.0000000 -1.0000000  0.0000000 )       (  0.0000000 )


      isym = 11     120 deg rotation - cart. axis [1,-1,-1]      

 cryst.   s(11) = (     0          0          1      )    f =(  0.0000000 )
                  (     1          0          0      )       (  0.0000000 )
                  (     0          1          0      )       (  0.0000000 )

 cart.    s(11) = (  0.0000000  0.0000000 -1.0000000 )    f =(  0.0000000 )
                  ( -1.0000000  0.0000000  0.0000000 )       (  0.0000000 )
                  (  0.0000000  1.0000000  0.0000000 )       (  0.0000000 )


      isym = 12     120 deg rotation - cart. axis [-1,-1,1]      

 cryst.   s(12) = (     1         -1          0      )    f =(  0.0000000 )
                  (     0         -1          1      )       (  0.0000000 )
                  (     0         -1          0      )       (  0.0000000 )

 cart.    s(12) = (  0.0000000  0.0000000 -1.0000000 )    f =(  0.0000000 )
                  (  1.0000000  0.0000000  0.0000000 )       (  0.0000000 )
                  (  0.0000000 -1.0000000  0.0000000 )       (  0.0000000 )


      isym = 13     inv. 180 deg rotation - cart. axis [1,1,0]   

 cryst.   s(13) = (     0          1          0      )    f =(  0.0000000 )
                  (     1          0          0      )       (  0.0000000 )
                  (     0          0          1      )       (  0.0000000 )

 cart.    s(13) = (  0.0000000 -1.0000000  0.0000000 )    f =(  0.0000000 )
                  ( -1.0000000  0.0000000  0.0000000 )       (  0.0000000 )
                  (  0.0000000  0.0000000  1.0000000 )       (  0.0000000 )


      isym = 14     inv. 180 deg rotation - cart. axis [1,-1,0]  

 cryst.   s(14) = (     1          0         -1      )    f =(  0.0000000 )
                  (     0          1         -1      )       (  0.0000000 )
                  (     0          0         -1      )       (  0.0000000 )

 cart.    s(14) = (  0.0000000  1.0000000  0.0000000 )    f =(  0.0000000 )
                  (  1.0000000  0.0000000  0.0000000 )       (  0.0000000 )
                  (  0.0000000  0.0000000  1.0000000 )       (  0.0000000 )


      isym = 15     inv.  90 deg rotation - cart. axis [0,0,-1]  

 cryst.   s(15) = (     0         -1          0      )    f =(  0.0000000 )
                  (     0         -1          1      )       (  0.0000000 )
                  (     1         -1          0      )       (  0.0000000 )

 cart.    s(15) = (  0.0000000 -1.0000000  0.0000000 )    f =(  0.0000000 )
                  (  1.0000000  0.0000000  0.0000000 )       (  0.0000000 )
                  (  0.0000000  0.0000000 -1.0000000 )       (  0.0000000 )


      isym = 16     inv.  90 deg rotation - cart. axis [0,0,1]   

 cryst.   s(16) = (    -1          0          1      )    f =(  0.0000000 )
                  (    -1          0          0      )       (  0.0000000 )
                  (    -1          1          0      )       (  0.0000000 )

 cart.    s(16) = (  0.0000000  1.0000000  0.0000000 )    f =(  0.0000000 )
                  ( -1.0000000  0.0000000  0.0000000 )       (  0.0000000 )
                  (  0.0000000  0.0000000 -1.0000000 )       (  0.0000000 )


      isym = 17     inv. 180 deg rotation - cart. axis [1,0,1]   

 cryst.   s(17) = (     1          0          0      )    f =(  0.0000000 )
                  (     0          0          1      )       (  0.0000000 )
                  (     0          1          0      )       (  0.0000000 )

 cart.    s(17) = (  0.0000000  0.0000000 -1.0000000 )    f =(  0.0000000 )
                  (  0.0000000  1.0000000  0.0000000 )       (  0.0000000 )
                  ( -1.0000000  0.0000000  0.0000000 )       (  0.0000000 )


      isym = 18     inv. 180 deg rotation - cart. axis [-1,0,1]  

 cryst.   s(18) = (    -1          0          0      )    f =(  0.0000000 )
                  (    -1          1          0      )       (  0.0000000 )
                  (    -1          0          1      )       (  0.0000000 )

 cart.    s(18) = (  0.0000000  0.0000000  1.0000000 )    f =(  0.0000000 )
                  (  0.0000000  1.0000000  0.0000000 )       (  0.0000000 )
                  (  1.0000000  0.0000000  0.0000000 )       (  0.0000000 )


      isym = 19     inv.  90 deg rotation - cart. axis [0,1,0]   

 cryst.   s(19) = (     0         -1          1      )    f =(  0.0000000 )
                  (     1         -1          0      )       (  0.0000000 )
                  (     0         -1          0      )       (  0.0000000 )

 cart.    s(19) = (  0.0000000  0.0000000 -1.0000000 )    f =(  0.0000000 )
                  (  0.0000000 -1.0000000  0.0000000 )       (  0.0000000 )
                  (  1.0000000  0.0000000  0.0000000 )       (  0.0000000 )


      isym = 20     inv.  90 deg rotation - cart. axis [0,-1,0]  

 cryst.   s(20) = (     0          1         -1      )    f =(  0.0000000 )
                  (     0          0         -1      )       (  0.0000000 )
                  (     1          0         -1      )       (  0.0000000 )

 cart.    s(20) = (  0.0000000  0.0000000  1.0000000 )    f =(  0.0000000 )
                  (  0.0000000 -1.0000000  0.0000000 )       (  0.0000000 )
                  ( -1.0000000  0.0000000  0.0000000 )       (  0.0000000 )


      isym = 21     inv. 180 deg rotation - cart. axis [0,1,1]   

 cryst.   s(21) = (     1         -1          0      )    f =(  0.0000000 )
                  (     0         -1          0      )       (  0.0000000 )
                  (     0         -1          1      )       (  0.0000000 )

 cart.    s(21) = (  1.0000000  0.0000000  0.0000000 )    f =(  0.0000000 )
                  (  0.0000000  0.0000000 -1.0000000 )       (  0.0000000 )
                  (  0.0000000 -1.0000000  0.0000000 )       (  0.0000000 )


      isym = 22     inv. 180 deg rotation - cart. axis [0,1,-1]  

 cryst.   s(22) = (     0          0          1      )    f =(  0.0000000 )
                  (     0          1          0      )       (  0.0000000 )
                  (     1          0          0      )       (  0.0000000 )

 cart.    s(22) = (  1.0000000  0.0000000  0.0000000 )    f =(  0.0000000 )
                  (  0.0000000  0.0000000  1.0000000 )       (  0.0000000 )
                  (  0.0000000  1.0000000  0.0000000 )       (  0.0000000 )


      isym = 23     inv.  90 deg rotation - cart. axis [-1,0,0]  

 cryst.   s(23) = (     0          0         -1      )    f =(  0.0000000 )
                  (     1          0         -1      )       (  0.0000000 )
                  (     0          1         -1      )       (  0.0000000 )

 cart.    s(23) = ( -1.0000000  0.0000000  0.0000000 )    f =(  0.0000000 )
                  (  0.0000000  0.0000000 -1.0000000 )       (  0.0000000 )
                  (  0.0000000  1.0000000  0.0000000 )       (  0.0000000 )


      isym = 24     inv.  90 deg rotation - cart. axis [1,0,0]   

 cryst.   s(24) = (    -1          1          0      )    f =(  0.0000000 )
                  (    -1          0          1      )       (  0.0000000 )
                  (    -1          0          0      )       (  0.0000000 )

 cart.    s(24) = ( -1.0000000  0.0000000  0.0000000 )    f =(  0.0000000 )
                  (  0.0000000  0.0000000  1.0000000 )       (  0.0000000 )
                  (  0.0000000 -1.0000000  0.0000000 )       (  0.0000000 )


     point group T_d (-43m) 
     there are  5 classes
     the character table:

       E     8C3   3C2   6S4   6s_d 
A_1    1.00  1.00  1.00  1.00  1.00
A_2    1.00  1.00  1.00 -1.00 -1.00
E      2.00 -1.00  2.00  0.00  0.00
T_1    3.00  0.00 -1.00  1.00 -1.00
T_2    3.00  0.00 -1.00 -1.00  1.00

     the symmetry operations in each class:
     E        1
     3C2      2    3    4
     8C3      5    7    8    6   12    9   10   11
     6s_d    13   14   17   18   21   22
     6S4     15   16   20   19   23   24

   Cartesian axes

     site n.     atom                  positions (alat units)
         1           Si  tau(   1) = (   0.0000000   0.0000000   0.0000000  )
         2           Si  tau(   2) = (   0.2500000   0.2500000   0.2500000  )

   Crystallographic axes

     site n.     atom                  positions (cryst. coord.)
         1           Si  tau(   1) = (  0.0000000  0.0000000  0.0000000  )
         2           Si  tau(   2) = ( -0.2500000  0.7500000 -0.2500000  )

     number of k points=    60
                       cart. coord. in units 2pi/alat
        k(    1) = (  -0.0625000   0.0625000   0.0625000), wk =   0.0078125
        k(    2) = (  -0.1875000   0.1875000  -0.0625000), wk =   0.0234375
        k(    3) = (  -0.3125000   0.3125000  -0.1875000), wk =   0.0234375
        k(    4) = (  -0.4375000   0.4375000  -0.3125000), wk =   0.0234375
        k(    5) = (   0.4375000  -0.4375000   0.5625000), wk =   0.0234375
        k(    6) = (   0.3125000  -0.3125000   0.4375000), wk =   0.0234375
        k(    7) = (   0.1875000  -0.1875000   0.3125000), wk =   0.0234375
        k(    8) = (   0.0625000  -0.0625000   0.1875000), wk =   0.0234375
        k(    9) = (  -0.0625000   0.3125000   0.0625000), wk =   0.0234375
        k(   10) = (  -0.1875000   0.4375000  -0.0625000), wk =   0.0468750
        k(   11) = (  -0.3125000   0.5625000  -0.1875000), wk =   0.0468750
        k(   12) = (   0.5625000  -0.3125000   0.6875000), wk =   0.0468750
        k(   13) = (   0.4375000  -0.1875000   0.5625000), wk =   0.0468750
        k(   14) = (   0.3125000  -0.0625000   0.4375000), wk =   0.0468750
        k(   15) = (   0.1875000   0.0625000   0.3125000), wk =   0.0468750
        k(   16) = (  -0.0625000   0.5625000   0.0625000), wk =   0.0234375
        k(   17) = (  -0.1875000   0.6875000  -0.0625000), wk =   0.0468750
        k(   18) = (   0.6875000  -0.1875000   0.8125000), wk =   0.0468750
        k(   19) = (   0.5625000  -0.0625000   0.6875000), wk =   0.0468750
        k(   20) = (   0.4375000   0.0625000   0.5625000), wk =   0.0468750
        k(   21) = (   0.3125000   0.1875000   0.4375000), wk =   0.0468750
        k(   22) = (  -0.0625000   0.8125000   0.0625000), wk =   0.0234375
        k(   23) = (   0.8125000  -0.0625000   0.9375000), wk =   0.0468750
        k(   24) = (   0.6875000   0.0625000   0.8125000), wk =   0.0468750
        k(   25) = (   0.5625000   0.1875000   0.6875000), wk =   0.0468750
        k(   26) = (   0.4375000   0.3125000   0.5625000), wk =   0.0468750
        k(   27) = (  -0.0625000  -0.9375000   0.0625000), wk =   0.0234375
        k(   28) = (  -0.1875000  -0.8125000  -0.0625000), wk =   0.0468750
        k(   29) = (  -0.3125000  -0.6875000  -0.1875000), wk =   0.0468750
        k(   30) = (  -0.0625000  -0.6875000   0.0625000), wk =   0.0234375
        k(   31) = (  -0.1875000  -0.5625000  -0.0625000), wk =   0.0468750
        k(   32) = (  -0.0625000  -0.4375000   0.0625000), wk =   0.0234375
        k(   33) = (  -0.1875000   0.1875000   0.1875000), wk =   0.0078125
        k(   34) = (  -0.3125000   0.3125000   0.0625000), wk =   0.0234375
        k(   35) = (  -0.4375000   0.4375000  -0.0625000), wk =   0.0234375
        k(   36) = (   0.4375000  -0.4375000   0.8125000), wk =   0.0234375
        k(   37) = (   0.3125000  -0.3125000   0.6875000), wk =   0.0234375
        k(   38) = (   0.1875000  -0.1875000   0.5625000), wk =   0.0234375
        k(   39) = (  -0.1875000   0.4375000   0.1875000), wk =   0.0234375
        k(   40) = (  -0.3125000   0.5625000   0.0625000), wk =   0.0468750
        k(   41) = (   0.5625000  -0.3125000   0.9375000), wk =   0.0468750
        k(   42) = (   0.4375000  -0.1875000   0.8125000), wk =   0.0468750
        k(   43) = (   0.3125000  -0.0625000   0.6875000), wk =   0.0468750
        k(   44) = (  -0.1875000   0.6875000   0.1875000), wk =   0.0234375
        k(   45) = (   0.6875000  -0.1875000   1.0625000), wk =   0.0468750
        k(   46) = (   0.5625000  -0.0625000   0.9375000), wk =   0.0468750
        k(   47) = (   0.4375000   0.0625000   0.8125000), wk =   0.0468750
        k(   48) = (  -0.1875000  -1.0625000   0.1875000), wk =   0.0234375
        k(   49) = (  -0.3125000  -0.9375000   0.0625000), wk =   0.0468750
        k(   50) = (  -0.1875000  -0.8125000   0.1875000), wk =   0.0234375
        k(   51) = (  -0.3125000   0.3125000   0.3125000), wk =   0.0078125
        k(   52) = (  -0.4375000   0.4375000   0.1875000), wk =   0.0234375
        k(   53) = (   0.4375000  -0.4375000   1.0625000), wk =   0.0234375
        k(   54) = (   0.3125000  -0.3125000   0.9375000), wk =   0.0234375
        k(   55) = (  -0.3125000   0.5625000   0.3125000), wk =   0.0234375
        k(   56) = (   0.5625000  -0.3125000   1.1875000), wk =   0.0468750
        k(   57) = (   0.4375000  -0.1875000   1.0625000), wk =   0.0468750
        k(   58) = (  -0.3125000  -1.1875000   0.3125000), wk =   0.0234375
        k(   59) = (  -0.4375000   0.4375000   0.4375000), wk =   0.0078125
        k(   60) = (   0.4375000  -0.4375000   1.3125000), wk =   0.0234375

                       cryst. coord.
        k(    1) = (   0.0625000   0.0625000   0.0625000), wk =   0.0078125
        k(    2) = (   0.0625000   0.0625000   0.1875000), wk =   0.0234375
        k(    3) = (   0.0625000   0.0625000   0.3125000), wk =   0.0234375
        k(    4) = (   0.0625000   0.0625000   0.4375000), wk =   0.0234375
        k(    5) = (   0.0625000   0.0625000  -0.4375000), wk =   0.0234375
        k(    6) = (   0.0625000   0.0625000  -0.3125000), wk =   0.0234375
        k(    7) = (   0.0625000   0.0625000  -0.1875000), wk =   0.0234375
        k(    8) = (   0.0625000   0.0625000  -0.0625000), wk =   0.0234375
        k(    9) = (   0.0625000   0.1875000   0.1875000), wk =   0.0234375
        k(   10) = (   0.0625000   0.1875000   0.3125000), wk =   0.0468750
        k(   11) = (   0.0625000   0.1875000   0.4375000), wk =   0.0468750
        k(   12) = (   0.0625000   0.1875000  -0.4375000), wk =   0.0468750
        k(   13) = (   0.0625000   0.1875000  -0.3125000), wk =   0.0468750
        k(   14) = (   0.0625000   0.1875000  -0.1875000), wk =   0.0468750
        k(   15) = (   0.0625000   0.1875000  -0.0625000), wk =   0.0468750
        k(   16) = (   0.0625000   0.3125000   0.3125000), wk =   0.0234375
        k(   17) = (   0.0625000   0.3125000   0.4375000), wk =   0.0468750
        k(   18) = (   0.0625000   0.3125000  -0.4375000), wk =   0.0468750
        k(   19) = (   0.0625000   0.3125000  -0.3125000), wk =   0.0468750
        k(   20) = (   0.0625000   0.3125000  -0.1875000), wk =   0.0468750
        k(   21) = (   0.0625000   0.3125000  -0.0625000), wk =   0.0468750
        k(   22) = (   0.0625000   0.4375000   0.4375000), wk =   0.0234375
        k(   23) = (   0.0625000   0.4375000  -0.4375000), wk =   0.0468750
        k(   24) = (   0.0625000   0.4375000  -0.3125000), wk =   0.0468750
        k(   25) = (   0.0625000   0.4375000  -0.1875000), wk =   0.0468750
        k(   26) = (   0.0625000   0.4375000  -0.0625000), wk =   0.0468750
        k(   27) = (   0.0625000  -0.4375000  -0.4375000), wk =   0.0234375
        k(   28) = (   0.0625000  -0.4375000  -0.3125000), wk =   0.0468750
        k(   29) = (   0.0625000  -0.4375000  -0.1875000), wk =   0.0468750
        k(   30) = (   0.0625000  -0.3125000  -0.3125000), wk =   0.0234375
        k(   31) = (   0.0625000  -0.3125000  -0.1875000), wk =   0.0468750
        k(   32) = (   0.0625000  -0.1875000  -0.1875000), wk =   0.0234375
        k(   33) = (   0.1875000   0.1875000   0.1875000), wk =   0.0078125
        k(   34) = (   0.1875000   0.1875000   0.3125000), wk =   0.0234375
        k(   35) = (   0.1875000   0.1875000   0.4375000), wk =   0.0234375
        k(   36) = (   0.1875000   0.1875000  -0.4375000), wk =   0.0234375
        k(   37) = (   0.1875000   0.1875000  -0.3125000), wk =   0.0234375
        k(   38) = (   0.1875000   0.1875000  -0.1875000), wk =   0.0234375
        k(   39) = (   0.1875000   0.3125000   0.3125000), wk =   0.0234375
        k(   40) = (   0.1875000   0.3125000   0.4375000), wk =   0.0468750
        k(   41) = (   0.1875000   0.3125000  -0.4375000), wk =   0.0468750
        k(   42) = (   0.1875000   0.3125000  -0.3125000), wk =   0.0468750
        k(   43) = (   0.1875000   0.3125000  -0.1875000), wk =   0.0468750
        k(   44) = (   0.1875000   0.4375000   0.4375000), wk =   0.0234375
        k(   45) = (   0.1875000   0.4375000  -0.4375000), wk =   0.0468750
        k(   46) = (   0.1875000   0.4375000  -0.3125000), wk =   0.0468750
        k(   47) = (   0.1875000   0.4375000  -0.1875000), wk =   0.0468750
        k(   48) = (   0.1875000  -0.4375000  -0.4375000), wk =   0.0234375
        k(   49) = (   0.1875000  -0.4375000  -0.3125000), wk =   0.0468750
        k(   50) = (   0.1875000  -0.3125000  -0.3125000), wk =   0.0234375
        k(   51) = (   0.3125000   0.3125000   0.3125000), wk =   0.0078125
        k(   52) = (   0.3125000   0.3125000   0.4375000), wk =   0.0234375
        k(   53) = (   0.3125000   0.3125000  -0.4375000), wk =   0.0234375
        k(   54) = (   0.3125000   0.3125000  -0.3125000), wk =   0.0234375
        k(   55) = (   0.3125000   0.4375000   0.4375000), wk =   0.0234375
        k(   56) = (   0.3125000   0.4375000  -0.4375000), wk =   0.0468750
        k(   57) = (   0.3125000   0.4375000  -0.3125000), wk =   0.0468750
        k(   58) = (   0.3125000  -0.4375000  -0.4375000), wk =   0.0234375
        k(   59) = (   0.4375000   0.4375000   0.4375000), wk =   0.0078125
        k(   60) = (   0.4375000   0.4375000  -0.4375000), wk =   0.0234375

     Dense  grid:     2085 G-vectors     FFT dimensions: (  18,  18,  18)

     Largest allocated arrays     est. size (Mb)     dimensions
        Kohn-Sham Wavefunctions         0.04 Mb     (    271,   10)
        NL pseudopotentials             0.03 Mb     (    271,    8)
        Each V/rho on FFT grid          0.09 Mb     (   5832)
        Each G-vector array             0.02 Mb     (   2085)
        G-vector shells                 0.00 Mb     (     54)
     Largest temporary arrays     est. size (Mb)     dimensions
        Auxiliary wavefunctions         0.17 Mb     (    271,   40)
        Each subspace H/S matrix        0.02 Mb     (  40,  40)
        Each <psi_i|beta_j> matrix      0.00 Mb     (      8,   10)
        Arrays for rho mixing           0.71 Mb     (   5832,   8)

     Initial potential from superposition of free atoms

     starting charge    7.99901, renormalised to    8.00000
     Starting wfc are    8 atomic +    2 random wfc

     total cpu time spent up to now is        0.7 secs

     per-process dynamical memory:     3.8 Mb

     Self-consistent Calculation

     iteration #  1     ecut=    15.00 Ry     beta=0.70
     Davidson diagonalization with overlap
     ethr =  1.00E-02,  avg # of iterations =  5.4

     Threshold (ethr) on eigenvalues was too large:
     Diagonalizing with lowered threshold

     Davidson diagonalization with overlap
     ethr =  7.84E-04,  avg # of iterations =  1.7

     total cpu time spent up to now is        6.2 secs

     total energy              =     -15.83064974 Ry
     Harris-Foulkes estimate   =     -15.85206513 Ry
     estimated scf accuracy    <       0.06224815 Ry

     iteration #  2     ecut=    15.00 Ry     beta=0.70
     Davidson diagonalization with overlap
     ethr =  7.78E-04,  avg # of iterations =  1.4

     total cpu time spent up to now is        7.8 secs

     total energy              =     -15.83448884 Ry
     Harris-Foulkes estimate   =     -15.83469977 Ry
     estimated scf accuracy    <       0.00173381 Ry

     iteration #  3     ecut=    15.00 Ry     beta=0.70
     Davidson diagonalization with overlap
     ethr =  2.17E-05,  avg # of iterations =  3.7

     total cpu time spent up to now is       10.3 secs

     total energy              =     -15.83453954 Ry
     Harris-Foulkes estimate   =     -15.83454499 Ry
     estimated scf accuracy    <       0.00005732 Ry

     iteration #  4     ecut=    15.00 Ry     beta=0.70
     Davidson diagonalization with overlap
     ethr =  7.16E-07,  avg # of iterations =  2.5

     total cpu time spent up to now is       12.3 secs

     total energy              =     -15.83454158 Ry
     Harris-Foulkes estimate   =     -15.83454159 Ry
     estimated scf accuracy    <       0.00000004 Ry

     iteration #  5     ecut=    15.00 Ry     beta=0.70
     Davidson diagonalization with overlap
     ethr =  5.55E-10,  avg # of iterations =  6.3

     total cpu time spent up to now is       16.1 secs

     End of self-consistent calculation

          k =-0.0625 0.0625 0.0625 (   265 PWs)   bands (ev):

    -5.7141   5.7831   6.2247   6.2247   8.9639   9.0166   9.0166  10.2015
    14.0482  14.0482

     occupation numbers 
     0.0078   0.0078   0.0078   0.0078   0.0000   0.0000   0.0000   0.0000
     0.0000   0.0000

          k =-0.1875 0.1875-0.0625 (   269 PWs)   bands (ev):

    -5.4439   4.2676   5.3759   6.1042   9.0684   9.2645   9.5882  11.5719
    13.1624  13.9968

     occupation numbers 
     0.0234   0.0234   0.0234   0.0234   0.0000   0.0000   0.0000   0.0000
     0.0000   0.0000

          k =-0.3125 0.3125-0.1875 (   264 PWs)   bands (ev):

    -4.7748   1.9801   4.8805   5.6239   8.6489   9.7624  10.0582  13.0066
    13.2138  14.9952

     occupation numbers 
     0.0234   0.0234   0.0234   0.0234   0.0000   0.0000   0.0000   0.0000
     0.0000   0.0000

          k =-0.4375 0.4375-0.3125 (   260 PWs)   bands (ev):

    -3.8295   0.0259   4.6659   5.2053   8.3393   9.8052   9.8153  14.0927
    14.7669  15.5309

     occupation numbers 
     0.0234   0.0234   0.0234   0.0234   0.0000   0.0000   0.0000   0.0000
     0.0000   0.0000

          k = 0.4375-0.4375 0.5625 (   258 PWs)   bands (ev):

    -3.3480  -0.7122   4.7236   4.9760   8.2589   9.5909   9.8861  14.1114
    15.8550  17.0748

     occupation numbers 
     0.0234   0.0234   0.0234   0.0234   0.0000   0.0000   0.0000   0.0000
     0.0000   0.0000

          k = 0.3125-0.3125 0.4375 (   260 PWs)   bands (ev):

    -4.1549   0.6064   4.9929   5.0229   8.4163   9.6196  10.1619  13.3156
    14.8341  15.4312

     occupation numbers 
     0.0234   0.0234   0.0234   0.0234   0.0000   0.0000   0.0000   0.0000
     0.0000   0.0000

          k = 0.1875-0.1875 0.3125 (   267 PWs)   bands (ev):

    -5.0404   2.7310   5.2728   5.4972   8.7433   9.5225  10.2490  12.1565
    13.7426  14.1572

     occupation numbers 
     0.0234   0.0234   0.0234   0.0234   0.0000   0.0000   0.0000   0.0000
     0.0000   0.0000

          k = 0.0625-0.0625 0.1875 (   267 PWs)   bands (ev):

    -5.5784   5.0360   5.7737   5.9546   8.7100   9.3758   9.6236  10.8782
    13.2841  14.2298

     occupation numbers 
     0.0234   0.0234   0.0234   0.0234   0.0000   0.0000   0.0000   0.0000
     0.0000   0.0000

          k =-0.0625 0.3125 0.0625 (   267 PWs)   bands (ev):

    -5.3025   4.1556   5.1898   5.2958   8.2619  10.1745  10.5145  11.0588
    13.0947  14.5925

     occupation numbers 
     0.0234   0.0234   0.0234   0.0234   0.0000   0.0000   0.0000   0.0000
     0.0000   0.0000

          k =-0.1875 0.4375-0.0625 (   262 PWs)   bands (ev):

    -4.7601   2.6267   4.1849   5.0256   8.4393  10.3072  10.7688  11.3294
    14.1640  15.4907

     occupation numbers 
     0.0469   0.0469   0.0469   0.0469   0.0000   0.0000   0.0000   0.0000
     0.0000   0.0000

          k =-0.3125 0.5625-0.1875 (   259 PWs)   bands (ev):

    -3.8795   0.6910   3.6933   4.5909   8.6541  10.1578  11.3582  11.5644
    15.6044  16.3473

     occupation numbers 
     0.0469   0.0469   0.0469   0.0469   0.0000   0.0000   0.0000   0.0000
     0.0000   0.0000

          k = 0.5625-0.3125 0.6875 (   254 PWs)   bands (ev):

    -3.0694  -0.5791   3.4048   4.4915   8.7517   9.8026  11.1898  13.6544
    15.0031  16.5047

     occupation numbers 
     0.0469   0.0469   0.0469   0.0469   0.0000   0.0000   0.0000   0.0000
     0.0000   0.0000

          k = 0.4375-0.1875 0.5625 (   258 PWs)   bands (ev):

    -3.5597   0.1483   3.3156   4.7903   9.0785   9.6785  11.1339  12.8850
    14.9242  15.7979

     occupation numbers 
     0.0469   0.0469   0.0469   0.0469   0.0000   0.0000   0.0000   0.0000
     0.0000   0.0000

          k = 0.3125-0.0625 0.4375 (   263 PWs)   bands (ev):

    -4.5044   1.9509   3.6019   5.3242   9.3766   9.6879  11.0052  11.4414
    13.4327  16.6085

     occupation numbers 
     0.0469   0.0469   0.0469   0.0469   0.0000   0.0000   0.0000   0.0000
     0.0000   0.0000

          k = 0.1875 0.0625 0.3125 (   268 PWs)   bands (ev):

    -5.1706   3.4478   4.7746   5.7150   8.8642   9.6538  10.3121  11.5700
    13.2128  14.5287

     occupation numbers 
     0.0469   0.0469   0.0469   0.0469   0.0000   0.0000   0.0000   0.0000
     0.0000   0.0000

          k =-0.0625 0.5625 0.0625 (   259 PWs)   bands (ev):

    -4.3459   2.1553   4.0383   4.1645   7.4120   9.1034  12.4458  12.5811
    15.3927  15.8614

     occupation numbers 
     0.0234   0.0234   0.0234   0.0234   0.0000   0.0000   0.0000   0.0000
     0.0000   0.0000

          k =-0.1875 0.6875-0.0625 (   258 PWs)   bands (ev):

    -3.5667   0.8896   3.2086   3.7987   7.7360   8.9348  12.3979  13.6004
    16.4750  17.8573

     occupation numbers 
     0.0469   0.0469   0.0469   0.0469   0.0000   0.0000   0.0000   0.0000
     0.0000   0.0000

          k = 0.6875-0.1875 0.8125 (   255 PWs)   bands (ev):

    -2.6212  -0.3628   2.3295   3.7671   7.9717  10.6486  11.9557  13.5118
    15.3712  17.2587

     occupation numbers 
     0.0469   0.0469   0.0469   0.0469   0.0000   0.0000   0.0000   0.0000
     0.0000   0.0000

          k = 0.5625-0.0625 0.6875 (   258 PWs)   bands (ev):

    -2.6941  -0.2672   1.9516   4.1283   8.3995  11.4378  12.7963  13.0460
    13.5705  14.9237

     occupation numbers 
     0.0469   0.0469   0.0469   0.0469   0.0000   0.0000   0.0000   0.0000
     0.0000   0.0000

          k = 0.4375 0.0625 0.5625 (   259 PWs)   bands (ev):

    -3.6344   0.6935   2.5953   4.7421   9.0927  10.3056  11.7980  12.0526
    13.9597  16.0526

     occupation numbers 
     0.0469   0.0469   0.0469   0.0469   0.0000   0.0000   0.0000   0.0000
     0.0000   0.0000

          k = 0.3125 0.1875 0.4375 (   262 PWs)   bands (ev):

    -4.3857   1.2952   4.3223   5.2226   8.8712   9.6692  10.5467  12.2378
    14.2842  15.7695

     occupation numbers 
     0.0469   0.0469   0.0469   0.0469   0.0000   0.0000   0.0000   0.0000
     0.0000   0.0000

          k =-0.0625 0.8125 0.0625 (   251 PWs)   bands (ev):

    -2.8874   0.0138   3.3165   3.5507   6.9936   7.7087  14.7992  14.8020
    17.7517  17.9610

     occupation numbers 
     0.0234   0.0234   0.0234   0.0234   0.0000   0.0000   0.0000   0.0000
     0.0000   0.0000

          k = 0.8125-0.0625 0.9375 (   254 PWs)   bands (ev):

    -1.9433  -1.0057   2.7200   3.2880   7.4286   8.1887  14.5249  15.5798
    16.2342  17.4220

     occupation numbers 
     0.0469   0.0469   0.0469   0.0469   0.0000   0.0000   0.0000   0.0000
     0.0000   0.0000

          k = 0.6875 0.0625 0.8125 (   259 PWs)   bands (ev):

    -2.0290  -0.8511   1.9412   3.6170   7.8127  10.4913  12.9485  14.1274
    14.7151  16.1659

     occupation numbers 
     0.0469   0.0469   0.0469   0.0469   0.0000   0.0000   0.0000   0.0000
     0.0000   0.0000

          k = 0.5625 0.1875 0.6875 (   256 PWs)   bands (ev):

    -2.8060  -0.4993   2.5710   4.2470   8.5324  10.5735  12.1770  13.4117
    14.0111  15.9637

     occupation numbers 
     0.0469   0.0469   0.0469   0.0469   0.0000   0.0000   0.0000   0.0000
     0.0000   0.0000

          k = 0.4375 0.3125 0.5625 (   258 PWs)   bands (ev):

    -3.4450  -0.3893   4.1564   4.8693   8.6960   9.5142  10.3535  13.9348
    15.1440  16.3531

     occupation numbers 
     0.0469   0.0469   0.0469   0.0469   0.0000   0.0000   0.0000   0.0000
     0.0000   0.0000

          k =-0.0625-0.9375 0.0625 (   254 PWs)   bands (ev):

    -1.9997  -1.0255   3.1720   3.4248   6.9742   7.3463  15.8998  15.9735
    17.4044  17.4881

     occupation numbers 
     0.0234   0.0234   0.0234   0.0234   0.0000   0.0000   0.0000   0.0000
     0.0000   0.0000

          k =-0.1875-0.8125-0.0625 (   255 PWs)   bands (ev):

    -2.7999  -0.0516   2.8870   3.4533   7.5321   8.4438  13.4301  14.7964
    16.9661  17.6785

     occupation numbers 
     0.0469   0.0469   0.0469   0.0469   0.0000   0.0000   0.0000   0.0000
     0.0000   0.0000

          k =-0.3125-0.6875-0.1875 (   256 PWs)   bands (ev):

    -3.2770   0.1526   2.9822   4.0815   8.2677  10.8307  11.1716  12.4025
    16.3411  17.0731

     occupation numbers 
     0.0469   0.0469   0.0469   0.0469   0.0000   0.0000   0.0000   0.0000
     0.0000   0.0000

          k =-0.0625-0.6875 0.0625 (   257 PWs)   bands (ev):

    -3.6757   1.0842   3.6037   3.7983   7.1340   8.3020  13.6068  13.6731
    16.7259  16.7339

     occupation numbers 
     0.0234   0.0234   0.0234   0.0234   0.0000   0.0000   0.0000   0.0000
     0.0000   0.0000

          k =-0.1875-0.5625-0.0625 (   259 PWs)   bands (ev):

    -4.2233   1.7841   3.6532   4.3380   8.0454   9.6465  11.4319  12.4366
    15.2867  16.6900

     occupation numbers 
     0.0469   0.0469   0.0469   0.0469   0.0000   0.0000   0.0000   0.0000
     0.0000   0.0000

          k =-0.0625-0.4375 0.0625 (   264 PWs)   bands (ev):

    -4.8912   3.1890   4.6109   4.6370   7.8015  10.0422  11.3533  11.5208
    14.0921  15.1418

     occupation numbers 
     0.0234   0.0234   0.0234   0.0234   0.0000   0.0000   0.0000   0.0000
     0.0000   0.0000

          k =-0.1875 0.1875 0.1875 (   271 PWs)   bands (ev):

    -5.3118   3.5147   5.7616   5.7616   8.6394   9.6532   9.6532  12.2180
    13.4971  13.4971

     occupation numbers 
     0.0078   0.0078   0.0078   0.0078   0.0000   0.0000   0.0000   0.0000
     0.0000   0.0000

          k =-0.3125 0.3125 0.0625 (   264 PWs)   bands (ev):

    -4.9019   2.6859   4.1787   5.7898   9.3051   9.7724  10.0757  12.1585
    12.6313  15.3939

     occupation numbers 
     0.0234   0.0234   0.0234   0.0234   0.0000   0.0000   0.0000   0.0000
     0.0000   0.0000

          k =-0.4375 0.4375-0.0625 (   263 PWs)   bands (ev):

    -4.1272   1.2970   3.0491   5.2601   9.0847  10.5509  10.7533  12.4340
    12.7463  16.7117

     occupation numbers 
     0.0234   0.0234   0.0234   0.0234   0.0000   0.0000   0.0000   0.0000
     0.0000   0.0000

          k = 0.4375-0.4375 0.8125 (   256 PWs)   bands (ev):

    -3.1806  -0.2656   2.9193   4.7068   8.5243  10.7524  10.9387  14.2986
    14.4490  14.7499

     occupation numbers 
     0.0234   0.0234   0.0234   0.0234   0.0000   0.0000   0.0000   0.0000
     0.0000   0.0000

          k = 0.3125-0.3125 0.6875 (   255 PWs)   bands (ev):

    -3.1628  -0.2942   3.2383   4.3745   8.2138  10.8438  11.2973  12.3023
    15.9855  17.0103

     occupation numbers 
     0.0234   0.0234   0.0234   0.0234   0.0000   0.0000   0.0000   0.0000
     0.0000   0.0000

          k = 0.1875-0.1875 0.5625 (   260 PWs)   bands (ev):

    -4.1050   1.2914   3.8708   4.3455   8.1356  10.3994  11.1340  11.6975
    16.2226  16.4121

     occupation numbers 
     0.0234   0.0234   0.0234   0.0234   0.0000   0.0000   0.0000   0.0000
     0.0000   0.0000

          k =-0.1875 0.4375 0.1875 (   265 PWs)   bands (ev):

    -4.6348   1.9922   4.7400   4.7791   8.5748  10.0827  10.9319  11.2350
    15.0062  15.0916

     occupation numbers 
     0.0234   0.0234   0.0234   0.0234   0.0000   0.0000   0.0000   0.0000
     0.0000   0.0000

          k =-0.3125 0.5625 0.0625 (   263 PWs)   bands (ev):

    -3.9844   1.2465   3.1081   4.5781   9.0603  10.1886  10.6093  12.2380
    14.6563  17.0464

     occupation numbers 
     0.0469   0.0469   0.0469   0.0469   0.0000   0.0000   0.0000   0.0000
     0.0000   0.0000

          k = 0.5625-0.3125 0.9375 (   257 PWs)   bands (ev):

    -3.0514   0.1320   2.2754   3.9747   9.5238  10.0302  11.3523  13.3622
    14.8687  15.4499

     occupation numbers 
     0.0469   0.0469   0.0469   0.0469   0.0000   0.0000   0.0000   0.0000
     0.0000   0.0000

          k = 0.4375-0.1875 0.8125 (   256 PWs)   bands (ev):

    -2.5321  -0.5202   2.2933   3.6424   9.0235  10.3693  12.1480  13.5410
    13.7498  17.4685

     occupation numbers 
     0.0469   0.0469   0.0469   0.0469   0.0000   0.0000   0.0000   0.0000
     0.0000   0.0000

          k = 0.3125-0.0625 0.6875 (   255 PWs)   bands (ev):

    -3.3506   0.5439   2.7252   3.8343   8.7525   9.9711  10.9754  13.5093
    16.0120  16.4017

     occupation numbers 
     0.0469   0.0469   0.0469   0.0469   0.0000   0.0000   0.0000   0.0000
     0.0000   0.0000

          k =-0.1875 0.6875 0.1875 (   257 PWs)   bands (ev):

    -3.4650   0.5878   3.0854   4.0007   7.7275   9.8134  12.2644  12.5425
    17.4021  17.4942

     occupation numbers 
     0.0234   0.0234   0.0234   0.0234   0.0000   0.0000   0.0000   0.0000
     0.0000   0.0000

          k = 0.6875-0.1875 1.0625 (   254 PWs)   bands (ev):

    -2.6299  -0.1975   2.4603   3.2648   8.5322   9.5650  11.8736  14.7775
    15.2682  17.3551

     occupation numbers 
     0.0469   0.0469   0.0469   0.0469   0.0000   0.0000   0.0000   0.0000
     0.0000   0.0000

          k = 0.5625-0.0625 0.9375 (   258 PWs)   bands (ev):

    -1.7816  -0.9724   2.1118   2.7304   9.6784  10.6061  11.4234  12.4251
    16.0871  17.5740

     occupation numbers 
     0.0469   0.0469   0.0469   0.0469   0.0000   0.0000   0.0000   0.0000
     0.0000   0.0000

          k = 0.4375 0.0625 0.8125 (   257 PWs)   bands (ev):

    -2.4114  -0.4192   2.1149   3.2342   9.7742  10.2364  11.0724  13.6028
    14.7635  16.9418

     occupation numbers 
     0.0469   0.0469   0.0469   0.0469   0.0000   0.0000   0.0000   0.0000
     0.0000   0.0000

          k =-0.1875-1.0625 0.1875 (   257 PWs)   bands (ev):

    -1.9572  -0.9597   2.2244   3.6459   7.2618   9.2395  14.4327  14.6553
    15.8626  15.9980

     occupation numbers 
     0.0234   0.0234   0.0234   0.0234   0.0000   0.0000   0.0000   0.0000
     0.0000   0.0000

          k =-0.3125-0.9375 0.0625 (   258 PWs)   bands (ev):

    -1.8556  -0.9833   2.3239   2.9654   8.4154   9.3567  12.8878  14.0246
    16.0912  17.5011

     occupation numbers 
     0.0469   0.0469   0.0469   0.0469   0.0000   0.0000   0.0000   0.0000
     0.0000   0.0000

          k =-0.1875-0.8125 0.1875 (   256 PWs)   bands (ev):

    -2.7334  -0.1684   2.5143   3.7642   7.4247   9.4310  13.4459  13.4747
    16.9587  17.1776

     occupation numbers 
     0.0234   0.0234   0.0234   0.0234   0.0000   0.0000   0.0000   0.0000
     0.0000   0.0000

          k =-0.3125 0.3125 0.3125 (   256 PWs)   bands (ev):

    -4.5199   1.2492   5.3400   5.3400   8.2028   9.8734   9.8734  14.0317
    14.1987  14.1987

     occupation numbers 
     0.0078   0.0078   0.0078   0.0078   0.0000   0.0000   0.0000   0.0000
     0.0000   0.0000

          k =-0.4375 0.4375 0.1875 (   256 PWs)   bands (ev):

    -4.0182   0.6691   3.8227   5.2497   8.8911  10.0914  10.1476  13.4362
    13.5785  15.8348

     occupation numbers 
     0.0234   0.0234   0.0234   0.0234   0.0000   0.0000   0.0000   0.0000
     0.0000   0.0000

          k = 0.4375-0.4375 1.0625 (   258 PWs)   bands (ev):

    -3.1937   0.1826   2.1927   4.6386   8.4274  11.6060  11.7729  13.2307
    13.4410  14.7540

     occupation numbers 
     0.0234   0.0234   0.0234   0.0234   0.0000   0.0000   0.0000   0.0000
     0.0000   0.0000

          k = 0.3125-0.3125 0.9375 (   263 PWs)   bands (ev):

    -2.3336  -0.6098   1.8208   4.0654   7.7566  11.7476  12.9200  13.2341
    14.4495  14.5668

     occupation numbers 
     0.0234   0.0234   0.0234   0.0234   0.0000   0.0000   0.0000   0.0000
     0.0000   0.0000

          k =-0.3125 0.5625 0.3125 (   260 PWs)   bands (ev):

    -3.6911   0.0864   4.1866   4.6569   8.5297   9.9146  10.6463  12.7144
    15.4579  16.8260

     occupation numbers 
     0.0234   0.0234   0.0234   0.0234   0.0000   0.0000   0.0000   0.0000
     0.0000   0.0000

          k = 0.5625-0.3125 1.1875 (   256 PWs)   bands (ev):

    -3.0370  -0.2496   2.8070   4.1496   9.2849   9.6267  12.3063  12.4478
    14.9234  16.4503

     occupation numbers 
     0.0469   0.0469   0.0469   0.0469   0.0000   0.0000   0.0000   0.0000
     0.0000   0.0000

          k = 0.4375-0.1875 1.0625 (   259 PWs)   bands (ev):

    -2.1876  -0.6598   1.9165   3.3945   8.8869  11.1926  12.0466  12.6114
    14.7163  16.5227

     occupation numbers 
     0.0469   0.0469   0.0469   0.0469   0.0000   0.0000   0.0000   0.0000
     0.0000   0.0000

          k =-0.3125-1.1875 0.3125 (   256 PWs)   bands (ev):

    -2.6604  -0.5249   2.3780   4.1710   7.9172  11.7085  12.0910  12.2671
    15.5282  15.6863

     occupation numbers 
     0.0234   0.0234   0.0234   0.0234   0.0000   0.0000   0.0000   0.0000
     0.0000   0.0000

          k =-0.4375 0.4375 0.4375 (   266 PWs)   bands (ev):

    -3.5824  -0.4681   5.1107   5.1107   7.9543   9.7008   9.7008  13.9646
    16.1435  16.1435

     occupation numbers 
     0.0078   0.0078   0.0078   0.0078   0.0000   0.0000   0.0000   0.0000
     0.0000   0.0000

          k = 0.4375-0.4375 1.3125 (   256 PWs)   bands (ev):

    -3.2109  -0.6367   3.8560   4.8284   8.5964   9.8703  10.3141  14.5029
    15.2841  15.7438

     occupation numbers 
     0.0234   0.0234   0.0234   0.0234   0.0000   0.0000   0.0000   0.0000
     0.0000   0.0000

     highest occupied, lowest unoccupied level (ev):     6.2247    6.9742

!    total energy              =     -15.83454173 Ry
     Harris-Foulkes estimate   =     -15.83454173 Ry
     estimated scf accuracy    <          4.1E-09 Ry

     The total energy is the sum of the following terms:

     one-electron contribution =       4.84133487 Ry
     hartree contribution      =       1.06950122 Ry
     xc contribution           =      -4.81740594 Ry
     ewald contribution        =     -16.92797188 Ry

     convergence has been achieved in   5 iterations

     Forces acting on atoms (Ry/au):

     atom    1 type  1   force =    -0.00000000    0.00000000    0.00000000
     atom    2 type  1   force =     0.00000000    0.00000000    0.00000000
     The non-local contrib.  to forces
     atom    1 type  1   force =     0.00000000    0.00000000    0.00000000
     atom    2 type  1   force =     0.00000000    0.00000000    0.00000000
     The ionic contribution  to forces
     atom    1 type  1   force =    -0.00000000   -0.00000000   -0.00000000
     atom    2 type  1   force =    -0.00000000    0.00000000   -0.00000000
     The local contribution  to forces
     atom    1 type  1   force =     0.00000000   -0.00000000   -0.00000000
     atom    2 type  1   force =    -0.00000000    0.00000000   -0.00000000
     The core correction contribution to forces
     atom    1 type  1   force =     0.00000000    0.00000000    0.00000000
     atom    2 type  1   force =     0.00000000    0.00000000    0.00000000
     The Hubbard contrib.    to forces
     atom    1 type  1   force =     0.00000000    0.00000000    0.00000000
     atom    2 type  1   force =     0.00000000    0.00000000    0.00000000
     The SCF correction term to forces
     atom    1 type  1   force =    -0.00000000    0.00000000   -0.00000000
     atom    2 type  1   force =    -0.00000000   -0.00000000    0.00000000

     Total force =     0.000000     Total SCF correction =     0.000000


     entering subroutine stress ...

          total   stress  (Ry/bohr**3)                   (kbar)     P=  -15.80
  -0.00010743  -0.00000000   0.00000000        -15.80     -0.00      0.00
  -0.00000000  -0.00010743   0.00000000         -0.00    -15.80      0.00
  -0.00000000   0.00000000  -0.00010743         -0.00      0.00    -15.80

     kinetic stress (kbar)   2298.57      0.00     -0.00
                                0.00   2298.57     -0.00
                               -0.00     -0.00   2298.57

     local   stress (kbar)  -1424.67      0.00      0.00
                                0.00  -1424.67     -0.00
                                0.00     -0.00  -1424.67

     nonloc. stress (kbar)   2872.10      0.00      0.00
                                0.00   2872.10     -0.00
                                0.00     -0.00   2872.10

     hartree stress (kbar)    198.66     -0.00     -0.00
                               -0.00    198.66      0.00
                               -0.00      0.00    198.66

     exc-cor stress (kbar)   -816.02      0.00      0.00
                                0.00   -816.02      0.00
                                0.00      0.00   -816.02

     corecor stress (kbar)      0.00      0.00      0.00
                                0.00      0.00      0.00
                                0.00      0.00      0.00

     ewald   stress (kbar)  -3144.45      0.00      0.00
                                0.00  -3144.45      0.00
                                0.00      0.00  -3144.45

     hubbard stress (kbar)      0.00      0.00      0.00
                                0.00      0.00      0.00
                                0.00      0.00      0.00

     london  stress (kbar)      0.00      0.00      0.00
                                0.00      0.00      0.00
                                0.00      0.00      0.00

     dft-nl  stress (kbar)      0.00      0.00      0.00
                                0.00      0.00      0.00
                                0.00      0.00      0.00



     Writing output data file Si_e15_k8.save

     init_run     :      0.62s CPU      0.68s WALL (       1 calls)
     electrons    :     13.82s CPU     15.38s WALL (       1 calls)
     forces       :      0.07s CPU      0.09s WALL (       1 calls)
     stress       :      0.25s CPU      0.26s WALL (       1 calls)

     Called by init_run:
     wfcinit      :      0.55s CPU      0.61s WALL (       1 calls)
     potinit      :      0.00s CPU      0.01s WALL (       1 calls)

     Called by electrons:
     c_bands      :     12.39s CPU     13.89s WALL (       6 calls)
     sum_band     :      1.40s CPU      1.46s WALL (       6 calls)
     v_of_rho     :      0.01s CPU      0.01s WALL (       6 calls)
     v_h          :      0.00s CPU      0.00s WALL (       6 calls)
     v_xc         :      0.00s CPU      0.01s WALL (       6 calls)
     mix_rho      :      0.01s CPU      0.00s WALL (       6 calls)

     Called by c_bands:
     init_us_2    :      0.15s CPU      0.19s WALL (     900 calls)
     cegterg      :     12.22s CPU     13.65s WALL (     360 calls)

     Called by sum_band:

     Called by *egterg:
     h_psi        :      8.74s CPU      9.65s WALL (    1681 calls)
     g_psi        :      0.09s CPU      0.09s WALL (    1261 calls)
     cdiaghg      :      1.41s CPU      1.67s WALL (    1561 calls)
     cegterg:over :      1.05s CPU      1.09s WALL (    1261 calls)
     cegterg:upda :      0.71s CPU      0.85s WALL (    1261 calls)
     cegterg:last :      0.28s CPU      0.34s WALL (     437 calls)

     Called by h_psi:
     h_psi:vloc   :      7.78s CPU      8.49s WALL (    1681 calls)
     h_psi:vnl    :      0.90s CPU      1.10s WALL (    1681 calls)
     add_vuspsi   :      0.28s CPU      0.41s WALL (    1681 calls)

     General routines
     calbec       :      0.64s CPU      0.70s WALL (    1801 calls)
     fft          :      0.02s CPU      0.02s WALL (      30 calls)
     fftw         :      8.11s CPU      8.75s WALL (   25670 calls)
     davcio       :      0.10s CPU      0.12s WALL (    1320 calls)

     Parallel routines

     PWSCF        :    15.28s CPU        16.96s WALL


   This run was terminated on:  15: 2:31  27Mar2012            

=------------------------------------------------------------------------------=
   JOB DONE.
=------------------------------------------------------------------------------=
