
     Program PWSCF v.4.3.2      starts on 27Mar2012 at 15: 2: 1 

     This program is part of the open-source Quantum ESPRESSO suite
     for quantum simulation of materials; please cite
         "P. Giannozzi et al., J. Phys.:Condens. Matter 21 395502 (2009);
          URL http://www.quantum-espresso.org", 
     in publications or presentations arising from this work. More details at
     http://www.quantum-espresso.org/wiki/index.php/Citing_Quantum-ESPRESSO

     Parallel version (MPI), running on     1 processors

     Current dimensions of program PWSCF are:
     Max number of different atomic species (ntypx) = 10
     Max number of k-points (npk) =  40000
     Max angular momentum in pseudopotentials (lmaxx) =  3
     Waiting for input...
     Reading input from stdin

     Subspace diagonalization in iterative solution of the eigenvalue problem:
     a serial algorithm will be used


     G-vector sticks info
     --------------------
     sticks:   dense  smooth     PW     G-vecs:    dense   smooth      PW
     Sum         211     211     85                 2085     2085     531



     bravais-lattice index     =            2
     lattice parameter (alat)  =      10.1830  a.u.
     unit-cell volume          =     263.9777 (a.u.)^3
     number of atoms/cell      =            2
     number of atomic types    =            1
     number of electrons       =         8.00
     number of Kohn-Sham states=           10
     kinetic-energy cutoff     =      15.0000  Ry
     charge density cutoff     =      60.0000  Ry
     convergence threshold     =      1.0E-08
     mixing beta               =       0.7000
     number of iterations used =            8  plain     mixing
     Exchange-correlation      =  SLA  PZ   NOGX NOGC ( 1 1 0 0 0)
     EXX-fraction              =        0.00

     celldm(1)=  10.183000  celldm(2)=   0.000000  celldm(3)=   0.000000
     celldm(4)=   0.000000  celldm(5)=   0.000000  celldm(6)=   0.000000

     crystal axes: (cart. coord. in units of alat)
               a(1) = (  -0.500000   0.000000   0.500000 )  
               a(2) = (   0.000000   0.500000   0.500000 )  
               a(3) = (  -0.500000   0.500000   0.000000 )  

     reciprocal axes: (cart. coord. in units 2 pi/alat)
               b(1) = ( -1.000000 -1.000000  1.000000 )  
               b(2) = (  1.000000  1.000000  1.000000 )  
               b(3) = ( -1.000000  1.000000 -1.000000 )  


     PseudoPot. # 1 for Si read from file:
     /home/dsangalli/Personal_files/Workshop/2012_Losanna_Cecam/trunk/GW_tutorial/Si/gs/pwscf/psps/Si.vbc.UPF
     MD5 check sum: bcd8ae23180a2f07cc8655fe7dcd9644
     Pseudo is Norm-conserving, Zval =  4.0
     Generated by new atomic code, or converted to UPF format
     Using radial grid of  431 points,  2 beta functions with: 
                l(1) =   0
                l(2) =   1

     atomic species   valence    mass     pseudopotential
        Si             4.00    28.08600     Si( 1.00)

     24 Sym.Ops. (no inversion)

                                    s                        frac. trans.

      isym =  1     identity                                     

 cryst.   s( 1) = (     1          0          0      )    f =(  0.0000000 )
                  (     0          1          0      )       (  0.0000000 )
                  (     0          0          1      )       (  0.0000000 )

 cart.    s( 1) = (  1.0000000  0.0000000  0.0000000 )    f =(  0.0000000 )
                  (  0.0000000  1.0000000  0.0000000 )       (  0.0000000 )
                  (  0.0000000  0.0000000  1.0000000 )       (  0.0000000 )


      isym =  2     180 deg rotation - cart. axis [0,0,1]        

 cryst.   s( 2) = (     0          1         -1      )    f =(  0.0000000 )
                  (     1          0         -1      )       (  0.0000000 )
                  (     0          0         -1      )       (  0.0000000 )

 cart.    s( 2) = ( -1.0000000  0.0000000  0.0000000 )    f =(  0.0000000 )
                  (  0.0000000 -1.0000000  0.0000000 )       (  0.0000000 )
                  (  0.0000000  0.0000000  1.0000000 )       (  0.0000000 )


      isym =  3     180 deg rotation - cart. axis [0,1,0]        

 cryst.   s( 3) = (    -1          0          0      )    f =(  0.0000000 )
                  (    -1          0          1      )       (  0.0000000 )
                  (    -1          1          0      )       (  0.0000000 )

 cart.    s( 3) = ( -1.0000000  0.0000000  0.0000000 )    f =(  0.0000000 )
                  (  0.0000000  1.0000000  0.0000000 )       (  0.0000000 )
                  (  0.0000000  0.0000000 -1.0000000 )       (  0.0000000 )


      isym =  4     180 deg rotation - cart. axis [1,0,0]        

 cryst.   s( 4) = (     0         -1          1      )    f =(  0.0000000 )
                  (     0         -1          0      )       (  0.0000000 )
                  (     1         -1          0      )       (  0.0000000 )

 cart.    s( 4) = (  1.0000000  0.0000000  0.0000000 )    f =(  0.0000000 )
                  (  0.0000000 -1.0000000  0.0000000 )       (  0.0000000 )
                  (  0.0000000  0.0000000 -1.0000000 )       (  0.0000000 )


      isym =  5     120 deg rotation - cart. axis [-1,-1,-1]     

 cryst.   s( 5) = (    -1          0          1      )    f =(  0.0000000 )
                  (    -1          1          0      )       (  0.0000000 )
                  (    -1          0          0      )       (  0.0000000 )

 cart.    s( 5) = (  0.0000000  1.0000000  0.0000000 )    f =(  0.0000000 )
                  (  0.0000000  0.0000000  1.0000000 )       (  0.0000000 )
                  (  1.0000000  0.0000000  0.0000000 )       (  0.0000000 )


      isym =  6     120 deg rotation - cart. axis [-1,1,1]       

 cryst.   s( 6) = (     0          1          0      )    f =(  0.0000000 )
                  (     0          0          1      )       (  0.0000000 )
                  (     1          0          0      )       (  0.0000000 )

 cart.    s( 6) = (  0.0000000 -1.0000000  0.0000000 )    f =(  0.0000000 )
                  (  0.0000000  0.0000000  1.0000000 )       (  0.0000000 )
                  ( -1.0000000  0.0000000  0.0000000 )       (  0.0000000 )


      isym =  7     120 deg rotation - cart. axis [1,1,-1]       

 cryst.   s( 7) = (     1          0         -1      )    f =(  0.0000000 )
                  (     0          0         -1      )       (  0.0000000 )
                  (     0          1         -1      )       (  0.0000000 )

 cart.    s( 7) = (  0.0000000  1.0000000  0.0000000 )    f =(  0.0000000 )
                  (  0.0000000  0.0000000 -1.0000000 )       (  0.0000000 )
                  ( -1.0000000  0.0000000  0.0000000 )       (  0.0000000 )


      isym =  8     120 deg rotation - cart. axis [1,-1,1]       

 cryst.   s( 8) = (     0         -1          0      )    f =(  0.0000000 )
                  (     1         -1          0      )       (  0.0000000 )
                  (     0         -1          1      )       (  0.0000000 )

 cart.    s( 8) = (  0.0000000 -1.0000000  0.0000000 )    f =(  0.0000000 )
                  (  0.0000000  0.0000000 -1.0000000 )       (  0.0000000 )
                  (  1.0000000  0.0000000  0.0000000 )       (  0.0000000 )


      isym =  9     120 deg rotation - cart. axis [1,1,1]        

 cryst.   s( 9) = (     0          0         -1      )    f =(  0.0000000 )
                  (     0          1         -1      )       (  0.0000000 )
                  (     1          0         -1      )       (  0.0000000 )

 cart.    s( 9) = (  0.0000000  0.0000000  1.0000000 )    f =(  0.0000000 )
                  (  1.0000000  0.0000000  0.0000000 )       (  0.0000000 )
                  (  0.0000000  1.0000000  0.0000000 )       (  0.0000000 )


      isym = 10     120 deg rotation - cart. axis [-1,1,-1]      

 cryst.   s(10) = (    -1          1          0      )    f =(  0.0000000 )
                  (    -1          0          0      )       (  0.0000000 )
                  (    -1          0          1      )       (  0.0000000 )

 cart.    s(10) = (  0.0000000  0.0000000  1.0000000 )    f =(  0.0000000 )
                  ( -1.0000000  0.0000000  0.0000000 )       (  0.0000000 )
                  (  0.0000000 -1.0000000  0.0000000 )       (  0.0000000 )


      isym = 11     120 deg rotation - cart. axis [1,-1,-1]      

 cryst.   s(11) = (     0          0          1      )    f =(  0.0000000 )
                  (     1          0          0      )       (  0.0000000 )
                  (     0          1          0      )       (  0.0000000 )

 cart.    s(11) = (  0.0000000  0.0000000 -1.0000000 )    f =(  0.0000000 )
                  ( -1.0000000  0.0000000  0.0000000 )       (  0.0000000 )
                  (  0.0000000  1.0000000  0.0000000 )       (  0.0000000 )


      isym = 12     120 deg rotation - cart. axis [-1,-1,1]      

 cryst.   s(12) = (     1         -1          0      )    f =(  0.0000000 )
                  (     0         -1          1      )       (  0.0000000 )
                  (     0         -1          0      )       (  0.0000000 )

 cart.    s(12) = (  0.0000000  0.0000000 -1.0000000 )    f =(  0.0000000 )
                  (  1.0000000  0.0000000  0.0000000 )       (  0.0000000 )
                  (  0.0000000 -1.0000000  0.0000000 )       (  0.0000000 )


      isym = 13     inv. 180 deg rotation - cart. axis [1,1,0]   

 cryst.   s(13) = (     0          1          0      )    f =(  0.0000000 )
                  (     1          0          0      )       (  0.0000000 )
                  (     0          0          1      )       (  0.0000000 )

 cart.    s(13) = (  0.0000000 -1.0000000  0.0000000 )    f =(  0.0000000 )
                  ( -1.0000000  0.0000000  0.0000000 )       (  0.0000000 )
                  (  0.0000000  0.0000000  1.0000000 )       (  0.0000000 )


      isym = 14     inv. 180 deg rotation - cart. axis [1,-1,0]  

 cryst.   s(14) = (     1          0         -1      )    f =(  0.0000000 )
                  (     0          1         -1      )       (  0.0000000 )
                  (     0          0         -1      )       (  0.0000000 )

 cart.    s(14) = (  0.0000000  1.0000000  0.0000000 )    f =(  0.0000000 )
                  (  1.0000000  0.0000000  0.0000000 )       (  0.0000000 )
                  (  0.0000000  0.0000000  1.0000000 )       (  0.0000000 )


      isym = 15     inv.  90 deg rotation - cart. axis [0,0,-1]  

 cryst.   s(15) = (     0         -1          0      )    f =(  0.0000000 )
                  (     0         -1          1      )       (  0.0000000 )
                  (     1         -1          0      )       (  0.0000000 )

 cart.    s(15) = (  0.0000000 -1.0000000  0.0000000 )    f =(  0.0000000 )
                  (  1.0000000  0.0000000  0.0000000 )       (  0.0000000 )
                  (  0.0000000  0.0000000 -1.0000000 )       (  0.0000000 )


      isym = 16     inv.  90 deg rotation - cart. axis [0,0,1]   

 cryst.   s(16) = (    -1          0          1      )    f =(  0.0000000 )
                  (    -1          0          0      )       (  0.0000000 )
                  (    -1          1          0      )       (  0.0000000 )

 cart.    s(16) = (  0.0000000  1.0000000  0.0000000 )    f =(  0.0000000 )
                  ( -1.0000000  0.0000000  0.0000000 )       (  0.0000000 )
                  (  0.0000000  0.0000000 -1.0000000 )       (  0.0000000 )


      isym = 17     inv. 180 deg rotation - cart. axis [1,0,1]   

 cryst.   s(17) = (     1          0          0      )    f =(  0.0000000 )
                  (     0          0          1      )       (  0.0000000 )
                  (     0          1          0      )       (  0.0000000 )

 cart.    s(17) = (  0.0000000  0.0000000 -1.0000000 )    f =(  0.0000000 )
                  (  0.0000000  1.0000000  0.0000000 )       (  0.0000000 )
                  ( -1.0000000  0.0000000  0.0000000 )       (  0.0000000 )


      isym = 18     inv. 180 deg rotation - cart. axis [-1,0,1]  

 cryst.   s(18) = (    -1          0          0      )    f =(  0.0000000 )
                  (    -1          1          0      )       (  0.0000000 )
                  (    -1          0          1      )       (  0.0000000 )

 cart.    s(18) = (  0.0000000  0.0000000  1.0000000 )    f =(  0.0000000 )
                  (  0.0000000  1.0000000  0.0000000 )       (  0.0000000 )
                  (  1.0000000  0.0000000  0.0000000 )       (  0.0000000 )


      isym = 19     inv.  90 deg rotation - cart. axis [0,1,0]   

 cryst.   s(19) = (     0         -1          1      )    f =(  0.0000000 )
                  (     1         -1          0      )       (  0.0000000 )
                  (     0         -1          0      )       (  0.0000000 )

 cart.    s(19) = (  0.0000000  0.0000000 -1.0000000 )    f =(  0.0000000 )
                  (  0.0000000 -1.0000000  0.0000000 )       (  0.0000000 )
                  (  1.0000000  0.0000000  0.0000000 )       (  0.0000000 )


      isym = 20     inv.  90 deg rotation - cart. axis [0,-1,0]  

 cryst.   s(20) = (     0          1         -1      )    f =(  0.0000000 )
                  (     0          0         -1      )       (  0.0000000 )
                  (     1          0         -1      )       (  0.0000000 )

 cart.    s(20) = (  0.0000000  0.0000000  1.0000000 )    f =(  0.0000000 )
                  (  0.0000000 -1.0000000  0.0000000 )       (  0.0000000 )
                  ( -1.0000000  0.0000000  0.0000000 )       (  0.0000000 )


      isym = 21     inv. 180 deg rotation - cart. axis [0,1,1]   

 cryst.   s(21) = (     1         -1          0      )    f =(  0.0000000 )
                  (     0         -1          0      )       (  0.0000000 )
                  (     0         -1          1      )       (  0.0000000 )

 cart.    s(21) = (  1.0000000  0.0000000  0.0000000 )    f =(  0.0000000 )
                  (  0.0000000  0.0000000 -1.0000000 )       (  0.0000000 )
                  (  0.0000000 -1.0000000  0.0000000 )       (  0.0000000 )


      isym = 22     inv. 180 deg rotation - cart. axis [0,1,-1]  

 cryst.   s(22) = (     0          0          1      )    f =(  0.0000000 )
                  (     0          1          0      )       (  0.0000000 )
                  (     1          0          0      )       (  0.0000000 )

 cart.    s(22) = (  1.0000000  0.0000000  0.0000000 )    f =(  0.0000000 )
                  (  0.0000000  0.0000000  1.0000000 )       (  0.0000000 )
                  (  0.0000000  1.0000000  0.0000000 )       (  0.0000000 )


      isym = 23     inv.  90 deg rotation - cart. axis [-1,0,0]  

 cryst.   s(23) = (     0          0         -1      )    f =(  0.0000000 )
                  (     1          0         -1      )       (  0.0000000 )
                  (     0          1         -1      )       (  0.0000000 )

 cart.    s(23) = ( -1.0000000  0.0000000  0.0000000 )    f =(  0.0000000 )
                  (  0.0000000  0.0000000 -1.0000000 )       (  0.0000000 )
                  (  0.0000000  1.0000000  0.0000000 )       (  0.0000000 )


      isym = 24     inv.  90 deg rotation - cart. axis [1,0,0]   

 cryst.   s(24) = (    -1          1          0      )    f =(  0.0000000 )
                  (    -1          0          1      )       (  0.0000000 )
                  (    -1          0          0      )       (  0.0000000 )

 cart.    s(24) = ( -1.0000000  0.0000000  0.0000000 )    f =(  0.0000000 )
                  (  0.0000000  0.0000000  1.0000000 )       (  0.0000000 )
                  (  0.0000000 -1.0000000  0.0000000 )       (  0.0000000 )


     point group T_d (-43m) 
     there are  5 classes
     the character table:

       E     8C3   3C2   6S4   6s_d 
A_1    1.00  1.00  1.00  1.00  1.00
A_2    1.00  1.00  1.00 -1.00 -1.00
E      2.00 -1.00  2.00  0.00  0.00
T_1    3.00  0.00 -1.00  1.00 -1.00
T_2    3.00  0.00 -1.00 -1.00  1.00

     the symmetry operations in each class:
     E        1
     3C2      2    3    4
     8C3      5    7    8    6   12    9   10   11
     6s_d    13   14   17   18   21   22
     6S4     15   16   20   19   23   24

   Cartesian axes

     site n.     atom                  positions (alat units)
         1           Si  tau(   1) = (   0.0000000   0.0000000   0.0000000  )
         2           Si  tau(   2) = (   0.2500000   0.2500000   0.2500000  )

   Crystallographic axes

     site n.     atom                  positions (cryst. coord.)
         1           Si  tau(   1) = (  0.0000000  0.0000000  0.0000000  )
         2           Si  tau(   2) = ( -0.2500000  0.7500000 -0.2500000  )

     number of k points=    44
                       cart. coord. in units 2pi/alat
        k(    1) = (  -0.0714286   0.0714286   0.0714286), wk =   0.0116618
        k(    2) = (  -0.2142857   0.2142857  -0.0714286), wk =   0.0349854
        k(    3) = (  -0.3571429   0.3571429  -0.2142857), wk =   0.0349854
        k(    4) = (   0.5000000  -0.5000000   0.6428571), wk =   0.0349854
        k(    5) = (   0.3571429  -0.3571429   0.5000000), wk =   0.0349854
        k(    6) = (   0.2142857  -0.2142857   0.3571429), wk =   0.0349854
        k(    7) = (   0.0714286  -0.0714286   0.2142857), wk =   0.0349854
        k(    8) = (  -0.0714286   0.3571429   0.0714286), wk =   0.0349854
        k(    9) = (  -0.2142857   0.5000000  -0.0714286), wk =   0.0699708
        k(   10) = (   0.6428571  -0.3571429   0.7857143), wk =   0.0699708
        k(   11) = (   0.5000000  -0.2142857   0.6428571), wk =   0.0699708
        k(   12) = (   0.3571429  -0.0714286   0.5000000), wk =   0.0699708
        k(   13) = (   0.2142857   0.0714286   0.3571429), wk =   0.0699708
        k(   14) = (  -0.0714286   0.6428571   0.0714286), wk =   0.0349854
        k(   15) = (   0.7857143  -0.2142857   0.9285714), wk =   0.0699708
        k(   16) = (   0.6428571  -0.0714286   0.7857143), wk =   0.0699708
        k(   17) = (   0.5000000   0.0714286   0.6428571), wk =   0.0699708
        k(   18) = (   0.3571429   0.2142857   0.5000000), wk =   0.0699708
        k(   19) = (  -0.0714286  -1.0714286   0.0714286), wk =   0.0349854
        k(   20) = (  -0.2142857  -0.9285714  -0.0714286), wk =   0.0699708
        k(   21) = (  -0.3571429  -0.7857143  -0.2142857), wk =   0.0699708
        k(   22) = (  -0.5000000  -0.6428571  -0.3571429), wk =   0.0349854
        k(   23) = (  -0.0714286  -0.7857143   0.0714286), wk =   0.0349854
        k(   24) = (  -0.2142857  -0.6428571  -0.0714286), wk =   0.0699708
        k(   25) = (  -0.0714286  -0.5000000   0.0714286), wk =   0.0349854
        k(   26) = (  -0.2142857   0.2142857   0.2142857), wk =   0.0116618
        k(   27) = (  -0.3571429   0.3571429   0.0714286), wk =   0.0349854
        k(   28) = (   0.5000000  -0.5000000   0.9285714), wk =   0.0349854
        k(   29) = (   0.3571429  -0.3571429   0.7857143), wk =   0.0349854
        k(   30) = (   0.2142857  -0.2142857   0.6428571), wk =   0.0349854
        k(   31) = (  -0.2142857   0.5000000   0.2142857), wk =   0.0349854
        k(   32) = (   0.6428571  -0.3571429   1.0714286), wk =   0.0699708
        k(   33) = (   0.5000000  -0.2142857   0.9285714), wk =   0.0699708
        k(   34) = (   0.3571429  -0.0714286   0.7857143), wk =   0.0699708
        k(   35) = (  -0.2142857  -1.2142857   0.2142857), wk =   0.0349854
        k(   36) = (  -0.3571429  -1.0714286   0.0714286), wk =   0.0699708
        k(   37) = (  -0.5000000  -0.9285714  -0.0714286), wk =   0.0349854
        k(   38) = (  -0.2142857  -0.9285714   0.2142857), wk =   0.0349854
        k(   39) = (  -0.3571429   0.3571429   0.3571429), wk =   0.0116618
        k(   40) = (   0.5000000  -0.5000000   1.2142857), wk =   0.0349854
        k(   41) = (   0.3571429  -0.3571429   1.0714286), wk =   0.0349854
        k(   42) = (  -0.3571429  -1.3571429   0.3571429), wk =   0.0349854
        k(   43) = (  -0.5000000  -1.2142857   0.2142857), wk =   0.0349854
        k(   44) = (   0.5000000  -0.5000000  -0.5000000), wk =   0.0058309

                       cryst. coord.
        k(    1) = (   0.0714286   0.0714286   0.0714286), wk =   0.0116618
        k(    2) = (   0.0714286   0.0714286   0.2142857), wk =   0.0349854
        k(    3) = (   0.0714286   0.0714286   0.3571429), wk =   0.0349854
        k(    4) = (   0.0714286   0.0714286  -0.5000000), wk =   0.0349854
        k(    5) = (   0.0714286   0.0714286  -0.3571429), wk =   0.0349854
        k(    6) = (   0.0714286   0.0714286  -0.2142857), wk =   0.0349854
        k(    7) = (   0.0714286   0.0714286  -0.0714286), wk =   0.0349854
        k(    8) = (   0.0714286   0.2142857   0.2142857), wk =   0.0349854
        k(    9) = (   0.0714286   0.2142857   0.3571429), wk =   0.0699708
        k(   10) = (   0.0714286   0.2142857  -0.5000000), wk =   0.0699708
        k(   11) = (   0.0714286   0.2142857  -0.3571429), wk =   0.0699708
        k(   12) = (   0.0714286   0.2142857  -0.2142857), wk =   0.0699708
        k(   13) = (   0.0714286   0.2142857  -0.0714286), wk =   0.0699708
        k(   14) = (   0.0714286   0.3571429   0.3571429), wk =   0.0349854
        k(   15) = (   0.0714286   0.3571429  -0.5000000), wk =   0.0699708
        k(   16) = (   0.0714286   0.3571429  -0.3571429), wk =   0.0699708
        k(   17) = (   0.0714286   0.3571429  -0.2142857), wk =   0.0699708
        k(   18) = (   0.0714286   0.3571429  -0.0714286), wk =   0.0699708
        k(   19) = (   0.0714286  -0.5000000  -0.5000000), wk =   0.0349854
        k(   20) = (   0.0714286  -0.5000000  -0.3571429), wk =   0.0699708
        k(   21) = (   0.0714286  -0.5000000  -0.2142857), wk =   0.0699708
        k(   22) = (   0.0714286  -0.5000000  -0.0714286), wk =   0.0349854
        k(   23) = (   0.0714286  -0.3571429  -0.3571429), wk =   0.0349854
        k(   24) = (   0.0714286  -0.3571429  -0.2142857), wk =   0.0699708
        k(   25) = (   0.0714286  -0.2142857  -0.2142857), wk =   0.0349854
        k(   26) = (   0.2142857   0.2142857   0.2142857), wk =   0.0116618
        k(   27) = (   0.2142857   0.2142857   0.3571429), wk =   0.0349854
        k(   28) = (   0.2142857   0.2142857  -0.5000000), wk =   0.0349854
        k(   29) = (   0.2142857   0.2142857  -0.3571429), wk =   0.0349854
        k(   30) = (   0.2142857   0.2142857  -0.2142857), wk =   0.0349854
        k(   31) = (   0.2142857   0.3571429   0.3571429), wk =   0.0349854
        k(   32) = (   0.2142857   0.3571429  -0.5000000), wk =   0.0699708
        k(   33) = (   0.2142857   0.3571429  -0.3571429), wk =   0.0699708
        k(   34) = (   0.2142857   0.3571429  -0.2142857), wk =   0.0699708
        k(   35) = (   0.2142857  -0.5000000  -0.5000000), wk =   0.0349854
        k(   36) = (   0.2142857  -0.5000000  -0.3571429), wk =   0.0699708
        k(   37) = (   0.2142857  -0.5000000  -0.2142857), wk =   0.0349854
        k(   38) = (   0.2142857  -0.3571429  -0.3571429), wk =   0.0349854
        k(   39) = (   0.3571429   0.3571429   0.3571429), wk =   0.0116618
        k(   40) = (   0.3571429   0.3571429  -0.5000000), wk =   0.0349854
        k(   41) = (   0.3571429   0.3571429  -0.3571429), wk =   0.0349854
        k(   42) = (   0.3571429  -0.5000000  -0.5000000), wk =   0.0349854
        k(   43) = (   0.3571429  -0.5000000  -0.3571429), wk =   0.0349854
        k(   44) = (  -0.5000000  -0.5000000  -0.5000000), wk =   0.0058309

     Dense  grid:     2085 G-vectors     FFT dimensions: (  18,  18,  18)

     Largest allocated arrays     est. size (Mb)     dimensions
        Kohn-Sham Wavefunctions         0.04 Mb     (    271,   10)
        NL pseudopotentials             0.03 Mb     (    271,    8)
        Each V/rho on FFT grid          0.09 Mb     (   5832)
        Each G-vector array             0.02 Mb     (   2085)
        G-vector shells                 0.00 Mb     (     54)
     Largest temporary arrays     est. size (Mb)     dimensions
        Auxiliary wavefunctions         0.17 Mb     (    271,   40)
        Each subspace H/S matrix        0.02 Mb     (  40,  40)
        Each <psi_i|beta_j> matrix      0.00 Mb     (      8,   10)
        Arrays for rho mixing           0.71 Mb     (   5832,   8)

     Initial potential from superposition of free atoms

     starting charge    7.99901, renormalised to    8.00000
     Starting wfc are    8 atomic +    2 random wfc

     total cpu time spent up to now is        0.5 secs

     per-process dynamical memory:     3.8 Mb

     Self-consistent Calculation

     iteration #  1     ecut=    15.00 Ry     beta=0.70
     Davidson diagonalization with overlap
     ethr =  1.00E-02,  avg # of iterations =  5.5

     Threshold (ethr) on eigenvalues was too large:
     Diagonalizing with lowered threshold

     Davidson diagonalization with overlap
     ethr =  7.84E-04,  avg # of iterations =  1.8

     total cpu time spent up to now is        4.8 secs

     total energy              =     -15.83062111 Ry
     Harris-Foulkes estimate   =     -15.85203710 Ry
     estimated scf accuracy    <       0.06224750 Ry

     iteration #  2     ecut=    15.00 Ry     beta=0.70
     Davidson diagonalization with overlap
     ethr =  7.78E-04,  avg # of iterations =  1.4

     total cpu time spent up to now is        6.1 secs

     total energy              =     -15.83446046 Ry
     Harris-Foulkes estimate   =     -15.83467153 Ry
     estimated scf accuracy    <       0.00173399 Ry

     iteration #  3     ecut=    15.00 Ry     beta=0.70
     Davidson diagonalization with overlap
     ethr =  2.17E-05,  avg # of iterations =  3.7

     total cpu time spent up to now is        7.9 secs

     total energy              =     -15.83451126 Ry
     Harris-Foulkes estimate   =     -15.83451669 Ry
     estimated scf accuracy    <       0.00005727 Ry

     iteration #  4     ecut=    15.00 Ry     beta=0.70
     Davidson diagonalization with overlap
     ethr =  7.16E-07,  avg # of iterations =  2.7

     total cpu time spent up to now is        9.4 secs

     total energy              =     -15.83451332 Ry
     Harris-Foulkes estimate   =     -15.83451333 Ry
     estimated scf accuracy    <       0.00000005 Ry

     iteration #  5     ecut=    15.00 Ry     beta=0.70
     Davidson diagonalization with overlap
     ethr =  6.52E-10,  avg # of iterations =  5.7

     total cpu time spent up to now is       12.3 secs

     End of self-consistent calculation

          k =-0.0714 0.0714 0.0714 (   265 PWs)   bands (ev):

    -5.6982   5.6471   6.2000   6.2000   8.9632   9.0528   9.0528  10.3098
    14.0008  14.0008

     occupation numbers 
     0.0117   0.0117   0.0117   0.0117   0.0000   0.0000   0.0000   0.0000
     0.0000   0.0000

          k =-0.2143 0.2143-0.0714 (   270 PWs)   bands (ev):

    -5.3451   3.8747   5.1656   6.0424   9.0767   9.3643   9.7187  11.8528
    13.0117  14.0941

     occupation numbers 
     0.0350   0.0350   0.0350   0.0350   0.0000   0.0000   0.0000   0.0000
     0.0000   0.0000

          k =-0.3571 0.3571-0.2143 (   261 PWs)   bands (ev):

    -4.4852   1.3221   4.6669   5.4853   8.6089   9.8281  10.0333  13.3407
    13.4809  15.3683

     occupation numbers 
     0.0350   0.0350   0.0350   0.0350   0.0000   0.0000   0.0000   0.0000
     0.0000   0.0000

          k = 0.5000-0.5000 0.6429 (   256 PWs)   bands (ev):

    -3.4371  -0.5541   4.5533   5.0565   8.3498   9.6821   9.8622  14.1983
    15.7041  16.0867

     occupation numbers 
     0.0350   0.0350   0.0350   0.0350   0.0000   0.0000   0.0000   0.0000
     0.0000   0.0000

          k = 0.3571-0.3571 0.5000 (   263 PWs)   bands (ev):

    -3.7494  -0.0797   4.7877   4.9156   8.3927   9.5780  10.1022  13.7541
    14.9480  16.3534

     occupation numbers 
     0.0350   0.0350   0.0350   0.0350   0.0000   0.0000   0.0000   0.0000
     0.0000   0.0000

          k = 0.2143-0.2143 0.3571 (   265 PWs)   bands (ev):

    -4.8201   2.1388   5.1237   5.2934   8.6986   9.5914  10.3699  12.1941
    14.3054  14.4435

     occupation numbers 
     0.0350   0.0350   0.0350   0.0350   0.0000   0.0000   0.0000   0.0000
     0.0000   0.0000

          k = 0.0714-0.0714 0.2143 (   267 PWs)   bands (ev):

    -5.5203   4.7601   5.6529   5.8516   8.6700   9.4681   9.7980  11.0870
    13.1428  14.2478

     occupation numbers 
     0.0350   0.0350   0.0350   0.0350   0.0000   0.0000   0.0000   0.0000
     0.0000   0.0000

          k =-0.0714 0.3571 0.0714 (   266 PWs)   bands (ev):

    -5.1607   3.7438   4.9886   5.0604   8.1472  10.3551  10.8499  10.9448
    13.4237  14.7431

     occupation numbers 
     0.0350   0.0350   0.0350   0.0350   0.0000   0.0000   0.0000   0.0000
     0.0000   0.0000

          k =-0.2143 0.5000-0.0714 (   261 PWs)   bands (ev):

    -4.4594   2.0530   3.8213   4.7350   8.4217  10.2437  10.7587  11.7909
    14.6356  16.3069

     occupation numbers 
     0.0700   0.0700   0.0700   0.0700   0.0000   0.0000   0.0000   0.0000
     0.0000   0.0000

          k = 0.6429-0.3571 0.7857 (   257 PWs)   bands (ev):

    -3.3866   0.0502   3.2808   4.3345   8.6206  10.2072  11.7412  11.9280
    15.9872  16.6107

     occupation numbers 
     0.0700   0.0700   0.0700   0.0700   0.0000   0.0000   0.0000   0.0000
     0.0000   0.0000

          k = 0.5000-0.2143 0.6429 (   255 PWs)   bands (ev):

    -3.0819  -0.3909   3.0148   4.4685   8.9137   9.8512  11.5827  13.5664
    14.6377  15.8378

     occupation numbers 
     0.0700   0.0700   0.0700   0.0700   0.0000   0.0000   0.0000   0.0000
     0.0000   0.0000

          k = 0.3571-0.0714 0.5000 (   261 PWs)   bands (ev):

    -4.1374   1.3423   3.1816   5.0304   9.4708   9.6954  11.3427  11.5720
    13.7944  16.8058

     occupation numbers 
     0.0700   0.0700   0.0700   0.0700   0.0000   0.0000   0.0000   0.0000
     0.0000   0.0000

          k = 0.2143 0.0714 0.3571 (   267 PWs)   bands (ev):

    -4.9884   2.9562   4.4745   5.5499   8.8903   9.7698  10.5830  11.4241
    13.4349  14.9710

     occupation numbers 
     0.0700   0.0700   0.0700   0.0700   0.0000   0.0000   0.0000   0.0000
     0.0000   0.0000

          k =-0.0714 0.6429 0.0714 (   259 PWs)   bands (ev):

    -3.9214   1.4476   3.7038   3.9240   7.2679   8.6149  13.1128  13.2259
    16.3196  16.4405

     occupation numbers 
     0.0350   0.0350   0.0350   0.0350   0.0000   0.0000   0.0000   0.0000
     0.0000   0.0000

          k = 0.7857-0.2143 0.9286 (   256 PWs)   bands (ev):

    -2.9376   0.1125   2.8242   3.5026   7.7223   8.7999  12.8763  14.4653
    16.8410  17.4318

     occupation numbers 
     0.0700   0.0700   0.0700   0.0700   0.0000   0.0000   0.0000   0.0000
     0.0000   0.0000

          k = 0.6429-0.0714 0.7857 (   258 PWs)   bands (ev):

    -2.1710  -0.7226   1.8869   3.6951   8.0596  11.2125  12.3768  13.6823
    14.3217  16.0070

     occupation numbers 
     0.0700   0.0700   0.0700   0.0700   0.0000   0.0000   0.0000   0.0000
     0.0000   0.0000

          k = 0.5000 0.0714 0.6429 (   260 PWs)   bands (ev):

    -3.0798   0.0777   2.2071   4.3311   8.7861  10.7532  12.2696  12.7194
    14.5561  14.7155

     occupation numbers 
     0.0700   0.0700   0.0700   0.0700   0.0000   0.0000   0.0000   0.0000
     0.0000   0.0000

          k = 0.3571 0.2143 0.5000 (   262 PWs)   bands (ev):

    -4.0001   0.6171   4.0357   4.9936   8.8926   9.6284  10.6715  12.5398
    14.8585  15.8339

     occupation numbers 
     0.0700   0.0700   0.0700   0.0700   0.0000   0.0000   0.0000   0.0000
     0.0000   0.0000

          k =-0.0714-1.0714 0.0714 (   252 PWs)   bands (ev):

    -2.0606  -0.9509   3.1183   3.4383   6.9911   7.4504  15.7445  15.8247
    17.3789  17.4705

     occupation numbers 
     0.0350   0.0350   0.0350   0.0350   0.0000   0.0000   0.0000   0.0000
     0.0000   0.0000

          k =-0.2143-0.9286-0.0714 (   254 PWs)   bands (ev):

    -1.9898  -0.9315   2.5912   3.2706   7.5719   8.4950  14.0997  15.3490
    16.0190  17.4427

     occupation numbers 
     0.0700   0.0700   0.0700   0.0700   0.0000   0.0000   0.0000   0.0000
     0.0000   0.0000

          k =-0.3571-0.7857-0.2143 (   257 PWs)   bands (ev):

    -2.7190  -0.3954   2.4578   3.8974   8.2596  11.0586  11.6320  12.9860
    15.0634  17.1891

     occupation numbers 
     0.0700   0.0700   0.0700   0.0700   0.0000   0.0000   0.0000   0.0000
     0.0000   0.0000

          k =-0.5000-0.6429-0.3571 (   256 PWs)   bands (ev):

    -3.1869  -0.6764   3.9366   4.7388   8.7970   9.4513  10.5330  14.4267
    15.0375  16.2866

     occupation numbers 
     0.0350   0.0350   0.0350   0.0350   0.0000   0.0000   0.0000   0.0000
     0.0000   0.0000

          k =-0.0714-0.7857 0.0714 (   251 PWs)   bands (ev):

    -3.0567   0.2351   3.3131   3.6025   7.0519   7.8811  14.4668  14.4880
    17.5870  17.7883

     occupation numbers 
     0.0350   0.0350   0.0350   0.0350   0.0000   0.0000   0.0000   0.0000
     0.0000   0.0000

          k =-0.2143-0.6429-0.0714 (   259 PWs)   bands (ev):

    -3.7718   1.1178   3.2558   3.9955   8.0112   9.3989  11.7508  13.0989
    16.0051  17.6786

     occupation numbers 
     0.0700   0.0700   0.0700   0.0700   0.0000   0.0000   0.0000   0.0000
     0.0000   0.0000

          k =-0.0714-0.5000 0.0714 (   261 PWs)   bands (ev):

    -4.6244   2.6337   4.2964   4.3960   7.6491   9.6071  11.8119  12.0135
    14.7933  15.4802

     occupation numbers 
     0.0350   0.0350   0.0350   0.0350   0.0000   0.0000   0.0000   0.0000
     0.0000   0.0000

          k =-0.2143 0.2143 0.2143 (   271 PWs)   bands (ev):

    -5.1725   3.0064   5.6573   5.6573   8.5358   9.7606   9.7606  12.6819
    13.5067  13.5067

     occupation numbers 
     0.0117   0.0117   0.0117   0.0117   0.0000   0.0000   0.0000   0.0000
     0.0000   0.0000

          k =-0.3571 0.3571 0.0714 (   264 PWs)   bands (ev):

    -4.6438   2.1215   3.7969   5.6175   9.2791  10.0086  10.2578  12.2472
    12.6241  16.2228

     occupation numbers 
     0.0350   0.0350   0.0350   0.0350   0.0000   0.0000   0.0000   0.0000
     0.0000   0.0000

          k = 0.5000-0.5000 0.9286 (   260 PWs)   bands (ev):

    -3.6680   0.6720   2.6150   4.9528   8.7799  11.0120  11.1712  12.8465
    13.0755  15.9929

     occupation numbers 
     0.0350   0.0350   0.0350   0.0350   0.0000   0.0000   0.0000   0.0000
     0.0000   0.0000

          k = 0.3571-0.3571 0.7857 (   254 PWs)   bands (ev):

    -2.8274  -0.5530   2.6968   4.3849   8.1804  11.2337  11.4749  13.0607
    15.2503  15.4810

     occupation numbers 
     0.0350   0.0350   0.0350   0.0350   0.0000   0.0000   0.0000   0.0000
     0.0000   0.0000

          k = 0.2143-0.2143 0.6429 (   260 PWs)   bands (ev):

    -3.6363   0.6303   3.3462   4.1764   7.9697  10.4648  11.5469  11.9671
    16.9414  17.1784

     occupation numbers 
     0.0350   0.0350   0.0350   0.0350   0.0000   0.0000   0.0000   0.0000
     0.0000   0.0000

          k =-0.2143 0.5000 0.2143 (   259 PWs)   bands (ev):

    -4.3009   1.3541   4.3548   4.6068   8.4695  10.3245  11.1049  11.2075
    15.7071  15.8328

     occupation numbers 
     0.0350   0.0350   0.0350   0.0350   0.0000   0.0000   0.0000   0.0000
     0.0000   0.0000

          k = 0.6429-0.3571 1.0714 (   256 PWs)   bands (ev):

    -3.4804   0.6078   2.6953   4.1522   9.2421  10.1310  10.7359  12.9363
    15.3591  16.2376

     occupation numbers 
     0.0700   0.0700   0.0700   0.0700   0.0000   0.0000   0.0000   0.0000
     0.0000   0.0000

          k = 0.5000-0.2143 0.9286 (   257 PWs)   bands (ev):

    -2.4261  -0.4484   2.0146   3.4641   9.3794  10.5118  11.8603  13.1041
    14.3700  16.4723

     occupation numbers 
     0.0700   0.0700   0.0700   0.0700   0.0000   0.0000   0.0000   0.0000
     0.0000   0.0000

          k = 0.3571-0.0714 0.7857 (   255 PWs)   bands (ev):

    -2.7089  -0.1343   2.3644   3.3685   8.9490  10.1289  11.1620  14.4333
    14.9179  16.9937

     occupation numbers 
     0.0700   0.0700   0.0700   0.0700   0.0000   0.0000   0.0000   0.0000
     0.0000   0.0000

          k =-0.2143-1.2143 0.2143 (   256 PWs)   bands (ev):

    -2.8500  -0.1019   2.5269   3.8771   7.5734   9.9937  12.8770  12.9661
    16.8234  17.1217

     occupation numbers 
     0.0350   0.0350   0.0350   0.0350   0.0000   0.0000   0.0000   0.0000
     0.0000   0.0000

          k =-0.3571-1.0714 0.0714 (   259 PWs)   bands (ev):

    -1.8836  -0.9227   2.1992   2.9193   8.7909   9.9034  12.2480  13.5254
    15.9197  17.5580

     occupation numbers 
     0.0700   0.0700   0.0700   0.0700   0.0000   0.0000   0.0000   0.0000
     0.0000   0.0000

          k =-0.5000-0.9286-0.0714 (   258 PWs)   bands (ev):

    -1.8303  -0.9201   2.0657   2.7573  10.1366  10.5114  11.5023  11.9574
    15.9201  17.6219

     occupation numbers 
     0.0350   0.0350   0.0350   0.0350   0.0000   0.0000   0.0000   0.0000
     0.0000   0.0000

          k =-0.2143-0.9286 0.2143 (   257 PWs)   bands (ev):

    -2.0300  -0.8749   2.0808   3.7245   7.3555   9.7598  14.0416  14.2498
    15.6269  15.7446

     occupation numbers 
     0.0350   0.0350   0.0350   0.0350   0.0000   0.0000   0.0000   0.0000
     0.0000   0.0000

          k =-0.3571 0.3571 0.3571 (   256 PWs)   bands (ev):

    -4.1766   0.5417   5.2328   5.2328   8.0878   9.8203   9.8203  14.1143
    14.7914  14.7914

     occupation numbers 
     0.0117   0.0117   0.0117   0.0117   0.0000   0.0000   0.0000   0.0000
     0.0000   0.0000

          k = 0.5000-0.5000 1.2143 (   255 PWs)   bands (ev):

    -3.5708   0.0139   3.5342   4.9991   8.7674  10.1508  10.3716  14.0258
    14.2103  15.6214

     occupation numbers 
     0.0350   0.0350   0.0350   0.0350   0.0000   0.0000   0.0000   0.0000
     0.0000   0.0000

          k = 0.3571-0.3571 1.0714 (   259 PWs)   bands (ev):

    -2.6145  -0.3778   1.9078   4.2611   7.9897  12.3163  12.3761  13.0750
    14.0941  14.1885

     occupation numbers 
     0.0350   0.0350   0.0350   0.0350   0.0000   0.0000   0.0000   0.0000
     0.0000   0.0000

          k =-0.3571-1.3571 0.3571 (   259 PWs)   bands (ev):

    -3.2576  -0.4698   3.7671   4.6134   8.4748  10.0952  10.6751  13.3462
    15.4653  17.0107

     occupation numbers 
     0.0350   0.0350   0.0350   0.0350   0.0000   0.0000   0.0000   0.0000
     0.0000   0.0000

          k =-0.5000-1.2143 0.2143 (   252 PWs)   bands (ev):

    -2.6524  -0.5303   2.4786   3.8237   9.4934   9.6305  13.0169  13.0438
    13.4163  17.3389

     occupation numbers 
     0.0350   0.0350   0.0350   0.0350   0.0000   0.0000   0.0000   0.0000
     0.0000   0.0000

          k = 0.5000-0.5000-0.5000 (   266 PWs)   bands (ev):

    -3.3700  -0.7791   5.0818   5.0818   7.9228   9.6677   9.6677  13.9127
    17.1079  17.1079

     occupation numbers 
     0.0058   0.0058   0.0058   0.0058   0.0000   0.0000   0.0000   0.0000
     0.0000   0.0000

     highest occupied, lowest unoccupied level (ev):     6.2000    6.9911

!    total energy              =     -15.83451346 Ry
     Harris-Foulkes estimate   =     -15.83451346 Ry
     estimated scf accuracy    <          3.9E-09 Ry

     The total energy is the sum of the following terms:

     one-electron contribution =       4.84136008 Ry
     hartree contribution      =       1.06950464 Ry
     xc contribution           =      -4.81740632 Ry
     ewald contribution        =     -16.92797188 Ry

     convergence has been achieved in   5 iterations

     Forces acting on atoms (Ry/au):

     atom    1 type  1   force =     0.00000000    0.00000000   -0.00000000
     atom    2 type  1   force =    -0.00000000   -0.00000000    0.00000000
     The non-local contrib.  to forces
     atom    1 type  1   force =     0.00000000    0.00000000   -0.00000000
     atom    2 type  1   force =    -0.00000000   -0.00000000    0.00000000
     The ionic contribution  to forces
     atom    1 type  1   force =    -0.00000000   -0.00000000   -0.00000000
     atom    2 type  1   force =    -0.00000000    0.00000000   -0.00000000
     The local contribution  to forces
     atom    1 type  1   force =     0.00000000   -0.00000000    0.00000000
     atom    2 type  1   force =    -0.00000000    0.00000000    0.00000000
     The core correction contribution to forces
     atom    1 type  1   force =     0.00000000    0.00000000    0.00000000
     atom    2 type  1   force =     0.00000000    0.00000000    0.00000000
     The Hubbard contrib.    to forces
     atom    1 type  1   force =     0.00000000    0.00000000    0.00000000
     atom    2 type  1   force =     0.00000000    0.00000000    0.00000000
     The SCF correction term to forces
     atom    1 type  1   force =     0.00000000   -0.00000000    0.00000000
     atom    2 type  1   force =     0.00000000   -0.00000000    0.00000000

     Total force =     0.000000     Total SCF correction =     0.000000


     entering subroutine stress ...

          total   stress  (Ry/bohr**3)                   (kbar)     P=  -15.81
  -0.00010744  -0.00000000   0.00000000        -15.81     -0.00      0.00
  -0.00000000  -0.00010744   0.00000000         -0.00    -15.81      0.00
   0.00000000   0.00000000  -0.00010744          0.00      0.00    -15.81

     kinetic stress (kbar)   2298.54      0.00      0.00
                                0.00   2298.54      0.00
                                0.00      0.00   2298.54

     local   stress (kbar)  -1424.66     -0.00      0.00
                               -0.00  -1424.66     -0.00
                                0.00     -0.00  -1424.66

     nonloc. stress (kbar)   2872.11     -0.00     -0.00
                               -0.00   2872.11      0.00
                               -0.00      0.00   2872.11

     hartree stress (kbar)    198.67      0.00     -0.00
                                0.00    198.67      0.00
                               -0.00      0.00    198.67

     exc-cor stress (kbar)   -816.02      0.00      0.00
                                0.00   -816.02      0.00
                                0.00      0.00   -816.02

     corecor stress (kbar)      0.00      0.00      0.00
                                0.00      0.00      0.00
                                0.00      0.00      0.00

     ewald   stress (kbar)  -3144.45      0.00      0.00
                                0.00  -3144.45      0.00
                                0.00      0.00  -3144.45

     hubbard stress (kbar)      0.00      0.00      0.00
                                0.00      0.00      0.00
                                0.00      0.00      0.00

     london  stress (kbar)      0.00      0.00      0.00
                                0.00      0.00      0.00
                                0.00      0.00      0.00

     dft-nl  stress (kbar)      0.00      0.00      0.00
                                0.00      0.00      0.00
                                0.00      0.00      0.00



     Writing output data file Si_e15_k7.save

     init_run     :      0.47s CPU      0.51s WALL (       1 calls)
     electrons    :     10.20s CPU     11.74s WALL (       1 calls)
     forces       :      0.06s CPU      0.06s WALL (       1 calls)
     stress       :      0.19s CPU      0.21s WALL (       1 calls)

     Called by init_run:
     wfcinit      :      0.40s CPU      0.44s WALL (       1 calls)
     potinit      :      0.00s CPU      0.01s WALL (       1 calls)

     Called by electrons:
     c_bands      :      9.12s CPU     10.64s WALL (       6 calls)
     sum_band     :      1.05s CPU      1.07s WALL (       6 calls)
     v_of_rho     :      0.01s CPU      0.01s WALL (       6 calls)
     v_h          :      0.00s CPU      0.00s WALL (       6 calls)
     v_xc         :      0.01s CPU      0.01s WALL (       6 calls)
     mix_rho      :      0.00s CPU      0.00s WALL (       6 calls)

     Called by c_bands:
     init_us_2    :      0.11s CPU      0.14s WALL (     660 calls)
     cegterg      :      8.99s CPU     10.47s WALL (     264 calls)

     Called by sum_band:

     Called by *egterg:
     h_psi        :      6.39s CPU      7.18s WALL (    1223 calls)
     g_psi        :      0.06s CPU      0.06s WALL (     915 calls)
     cdiaghg      :      1.05s CPU      1.32s WALL (    1135 calls)
     cegterg:over :      0.67s CPU      0.91s WALL (     915 calls)
     cegterg:upda :      0.59s CPU      0.73s WALL (     915 calls)
     cegterg:last :      0.21s CPU      0.26s WALL (     313 calls)

     Called by h_psi:
     h_psi:vloc   :      5.56s CPU      6.26s WALL (    1223 calls)
     h_psi:vnl    :      0.78s CPU      0.87s WALL (    1223 calls)
     add_vuspsi   :      0.31s CPU      0.32s WALL (    1223 calls)

     General routines
     calbec       :      0.48s CPU      0.57s WALL (    1311 calls)
     fft          :      0.01s CPU      0.02s WALL (      30 calls)
     fftw         :      5.85s CPU      6.42s WALL (   18710 calls)
     davcio       :      0.07s CPU      0.09s WALL (     968 calls)

     Parallel routines

     PWSCF        :    11.31s CPU        12.96s WALL


   This run was terminated on:  15: 2:14  27Mar2012            

=------------------------------------------------------------------------------=
   JOB DONE.
=------------------------------------------------------------------------------=
