
     Program PWSCF v.6.3MaX starts on  5Nov2019 at 17:34:25 

     This program is part of the open-source Quantum ESPRESSO suite
     for quantum simulation of materials; please cite
         "P. Giannozzi et al., J. Phys.:Condens. Matter 21 395502 (2009);
         "P. Giannozzi et al., J. Phys.:Condens. Matter 29 465901 (2017);
          URL http://www.quantum-espresso.org", 
     in publications or presentations arising from this work. More details at
     http://www.quantum-espresso.org/quote

     Parallel version (MPI & OpenMP), running on       1 processor cores
     Number of MPI processes:                 1
     Threads/MPI process:                     1

     MPI processes distributed on     1 nodes
     Waiting for input...
     Reading input from standard input
     Message from routine read_cards :
     DEPRECATED: no units specified in ATOMIC_POSITIONS card
     Message from routine read_cards :
     ATOMIC_POSITIONS: units set to alat

     Current dimensions of program PWSCF are:
     Max number of different atomic species (ntypx) = 10
     Max number of k-points (npk) =  40000
     Max angular momentum in pseudopotentials (lmaxx) =  3

     Subspace diagonalization in iterative solution of the eigenvalue problem:
     a serial algorithm will be used


     G-vector sticks info
     --------------------
     sticks:   dense  smooth     PW     G-vecs:    dense   smooth      PW
     Sum         121     121     55                  941      941     259



     bravais-lattice index     =            2
     lattice parameter (alat)  =       7.5000  a.u.
     unit-cell volume          =     105.4688 (a.u.)^3
     number of atoms/cell      =            1
     number of atomic types    =            1
     number of electrons       =         3.00
     number of Kohn-Sham states=           20
     kinetic-energy cutoff     =      16.0000  Ry
     charge density cutoff     =      64.0000  Ry
     convergence threshold     =      1.0E-08
     mixing beta               =       0.7000
     number of iterations used =            8  plain     mixing
     Exchange-correlation      =  SLA  PZ   NOGX NOGC ( 1  1  0  0 0 0)

     celldm(1)=   7.500000  celldm(2)=   0.000000  celldm(3)=   0.000000
     celldm(4)=   0.000000  celldm(5)=   0.000000  celldm(6)=   0.000000

     crystal axes: (cart. coord. in units of alat)
               a(1) = (  -0.500000   0.000000   0.500000 )  
               a(2) = (   0.000000   0.500000   0.500000 )  
               a(3) = (  -0.500000   0.500000   0.000000 )  

     reciprocal axes: (cart. coord. in units 2 pi/alat)
               b(1) = ( -1.000000 -1.000000  1.000000 )  
               b(2) = (  1.000000  1.000000  1.000000 )  
               b(3) = ( -1.000000  1.000000 -1.000000 )  


     PseudoPot. # 1 for Al read from file:
     ./Al.vbc.UPF
     MD5 check sum: c34c8b369e81ee50c191f4345b5f621b
     Pseudo is Norm-conserving, Zval =  3.0
     Generated by new atomic code, or converted to UPF format
     Using radial grid of  171 points,  2 beta functions with: 
                l(1) =   0
                l(2) =   1

     atomic species   valence    mass     pseudopotential
        Al             3.00    26.98000     Al( 1.00)

     48 Sym. Ops., with inversion, found



   Cartesian axes

     site n.     atom                  positions (alat units)
         1           Al  tau(   1) = (   0.0000000   0.0000000   0.0000000  )

     number of k points=    29  Methfessel-Paxton smearing, width (Ry)=  0.0000
                       cart. coord. in units 2pi/alat
        k(    1) = (   0.0000000   0.0000000   0.0000000), wk =   0.0039062
        k(    2) = (  -0.1250000   0.1250000  -0.1250000), wk =   0.0312500
        k(    3) = (  -0.2500000   0.2500000  -0.2500000), wk =   0.0312500
        k(    4) = (  -0.3750000   0.3750000  -0.3750000), wk =   0.0312500
        k(    5) = (   0.5000000  -0.5000000   0.5000000), wk =   0.0156250
        k(    6) = (   0.0000000   0.2500000   0.0000000), wk =   0.0234375
        k(    7) = (  -0.1250000   0.3750000  -0.1250000), wk =   0.0937500
        k(    8) = (  -0.2500000   0.5000000  -0.2500000), wk =   0.0937500
        k(    9) = (   0.6250000  -0.3750000   0.6250000), wk =   0.0937500
        k(   10) = (   0.5000000  -0.2500000   0.5000000), wk =   0.0937500
        k(   11) = (   0.3750000  -0.1250000   0.3750000), wk =   0.0937500
        k(   12) = (   0.2500000   0.0000000   0.2500000), wk =   0.0468750
        k(   13) = (   0.0000000   0.5000000   0.0000000), wk =   0.0234375
        k(   14) = (  -0.1250000   0.6250000  -0.1250000), wk =   0.0937500
        k(   15) = (   0.7500000  -0.2500000   0.7500000), wk =   0.0937500
        k(   16) = (   0.6250000  -0.1250000   0.6250000), wk =   0.0937500
        k(   17) = (   0.5000000   0.0000000   0.5000000), wk =   0.0468750
        k(   18) = (   0.0000000   0.7500000   0.0000000), wk =   0.0234375
        k(   19) = (   0.8750000  -0.1250000   0.8750000), wk =   0.0937500
        k(   20) = (   0.7500000   0.0000000   0.7500000), wk =   0.0468750
        k(   21) = (   0.0000000  -1.0000000   0.0000000), wk =   0.0117188
        k(   22) = (  -0.2500000   0.5000000   0.0000000), wk =   0.0937500
        k(   23) = (   0.6250000  -0.3750000   0.8750000), wk =   0.1875000
        k(   24) = (   0.5000000  -0.2500000   0.7500000), wk =   0.0937500
        k(   25) = (   0.7500000  -0.2500000   1.0000000), wk =   0.0937500
        k(   26) = (   0.6250000  -0.1250000   0.8750000), wk =   0.1875000
        k(   27) = (   0.5000000   0.0000000   0.7500000), wk =   0.0937500
        k(   28) = (  -0.2500000  -1.0000000   0.0000000), wk =   0.0468750
        k(   29) = (  -0.5000000  -1.0000000   0.0000000), wk =   0.0234375

     Dense  grid:      941 G-vectors     FFT dimensions: (  15,  15,  15)

     Estimated max dynamical RAM per process >       2.31 MB

     Initial potential from superposition of free atoms

     starting charge    2.99794, renormalised to    3.00000
     Starting wfcs are    9 randomized atomic wfcs +   11 random wfcs

     total cpu time spent up to now is        0.1 secs

     Self-consistent Calculation

     iteration #  1     ecut=    16.00 Ry     beta= 0.70
     Davidson diagonalization with overlap
     ethr =  1.00E-02,  avg # of iterations =  4.3

     Threshold (ethr) on eigenvalues was too large:
     Diagonalizing with lowered threshold

     Davidson diagonalization with overlap
     ethr =  1.95E-04,  avg # of iterations =  1.1

     total cpu time spent up to now is        0.6 secs

     total energy              =      -4.18718656 Ry
     Harris-Foulkes estimate   =      -4.18798595 Ry
     estimated scf accuracy    <       0.00586268 Ry

     iteration #  2     ecut=    16.00 Ry     beta= 0.70
     Davidson diagonalization with overlap
     ethr =  1.95E-04,  avg # of iterations =  1.0

     total cpu time spent up to now is        0.7 secs

     total energy              =      -4.18718143 Ry
     Harris-Foulkes estimate   =      -4.18720986 Ry
     estimated scf accuracy    <       0.00045556 Ry

     iteration #  3     ecut=    16.00 Ry     beta= 0.70
     Davidson diagonalization with overlap
     ethr =  1.52E-05,  avg # of iterations =  1.2

     total cpu time spent up to now is        0.8 secs

     total energy              =      -4.18718378 Ry
     Harris-Foulkes estimate   =      -4.18718371 Ry
     estimated scf accuracy    <       0.00000029 Ry

     iteration #  4     ecut=    16.00 Ry     beta= 0.70
     Davidson diagonalization with overlap
     ethr =  9.57E-09,  avg # of iterations =  4.4

     total cpu time spent up to now is        0.9 secs

     End of self-consistent calculation

          k = 0.0000 0.0000 0.0000 (   113 PWs)   bands (ev):

    -3.1910  21.1780  21.1780  21.1780  22.5552  22.5552  22.5552  25.0598
    28.4672  28.4672  31.0394  33.2354  33.2354  33.2354  40.6710  64.4580
    64.4580  64.4580  66.8335  66.8335

          k =-0.1250 0.1250-0.1250 (   116 PWs)   bands (ev):

    -2.7464  16.7377  20.1744  20.1744  23.2580  24.1692  24.1692  26.5038
    26.5038  28.6490  29.6277  35.1337  36.2270  36.2270  42.4493  57.6863
    57.6863  60.1691  66.0455  66.0455

          k =-0.2500 0.2500-0.2500 (   117 PWs)   bands (ev):

    -1.4227  11.7853  19.3924  19.3924  22.9548  23.3375  23.3375  27.3720
    27.6559  27.6559  33.4477  39.8802  41.5217  41.5217  46.7193  50.1793
    50.1793  54.4135  66.9978  66.9978

          k =-0.3750 0.3750-0.3750 (   114 PWs)   bands (ev):

     0.7435   7.4083  19.3011  19.3011  21.2896  21.2896  23.0542  25.3372
    31.4048  31.4048  37.4328  43.0612  43.0612  46.3454  48.5501  48.5501
    48.9136  53.7100  62.9136  64.0208

          k = 0.5000-0.5000 0.5000 (   120 PWs)   bands (ev):

     3.5937   3.8162  19.8931  19.8931  19.9614  19.9614  23.7135  23.9814
    34.4237  34.4237  39.3062  39.3062  39.7514  45.8663  53.7528  54.8647
    54.8647  55.5576  56.7405  56.7405

          k = 0.0000 0.2500 0.0000 (   117 PWs)   bands (ev):

    -2.5986  18.3783  18.3783  18.5778  21.4814  23.2541  26.2167  26.2167
    28.8385  29.0256  32.2171  33.9610  33.9610  37.4633  43.8370  57.6488
    57.6488  58.1423  62.1246  64.9514

          k =-0.1250 0.3750-0.1250 (   119 PWs)   bands (ev):

    -1.5698  13.6671  17.3030  18.8424  20.1179  22.6988  26.7336  26.9273
    29.5606  30.5942  33.4252  37.5246  38.2390  40.4009  48.2777  50.0391
    52.0353  58.7884  59.8788  61.6900

          k =-0.2500 0.5000-0.2500 (   112 PWs)   bands (ev):

     0.3150   9.1383  16.9576  17.6666  18.7242  24.8841  25.5882  27.0948
    28.5939  32.8965  37.8071  42.1501  43.8456  44.6148  45.2279  47.4087
    52.7342  55.3639  60.2403  61.2662

          k = 0.6250-0.3750 0.6250 (   115 PWs)   bands (ev):

     2.9995   5.2313  16.0280  17.3331  19.1646  23.3064  26.1377  27.4259
    30.6516  34.5378  39.6415  39.9166  42.0022  48.5405  50.7019  51.2816
    53.1836  55.1004  58.8017  60.7169

          k = 0.5000-0.2500 0.5000 (   114 PWs)   bands (ev):

     2.0204   6.4522  15.1423  18.4409  20.3668  22.4400  25.3431  28.3751
    30.5442  32.6871  38.2648  41.1674  44.2605  46.3930  48.9769  50.2266
    53.8170  57.7948  58.7476  58.7914

          k = 0.3750-0.1250 0.3750 (   116 PWs)   bands (ev):

    -0.4059  10.5579  15.0503  20.2678  22.2858  22.2957  24.9123  26.4600
    28.7406  31.1293  36.6918  40.1510  42.2845  44.1420  46.6098  50.4473
    51.1001  54.5120  59.9489  62.1639

          k = 0.2500 0.0000 0.2500 (   117 PWs)   bands (ev):

    -2.0091  14.8038  16.1718  22.3312  22.5248  23.9975  24.4550  24.7505
    26.4572  31.9871  32.1239  35.1615  37.7734  40.9883  45.4437  50.5896
    57.2961  59.1943  59.5679  62.1881

          k = 0.0000 0.5000 0.0000 (   125 PWs)   bands (ev):

    -0.8413  15.7817  15.9685  15.9685  16.6868  19.6151  30.6651  30.7453
    30.7453  35.1674  35.7150  36.5648  36.5648  40.1848  50.6372  50.7239
    50.7239  52.8618  56.5402  66.2067

          k =-0.1250 0.6250-0.1250 (   118 PWs)   bands (ev):

     0.7428  11.5474  13.9751  15.3732  16.8370  20.9891  29.1464  31.3707
    34.1339  34.3892  39.5202  40.5662  42.2536  43.4095  43.8934  46.5985
    52.0596  55.9003  58.2322  60.6357

          k = 0.7500-0.2500 0.7500 (   113 PWs)   bands (ev):

     3.1355   7.5190  12.0293  15.5034  17.2147  24.6932  27.4472  30.4094
    33.6012  34.9527  40.2229  41.4450  44.3024  46.8964  47.9184  50.7473
    52.6853  53.8057  55.6553  58.7412

          k = 0.6250-0.1250 0.6250 (   114 PWs)   bands (ev):

     4.1062   6.2779  10.8989  16.3588  18.2334  26.3620  28.2390  29.7377
    30.4155  33.5238  37.3781  43.5437  45.8997  47.5025  51.8293  53.0679
    53.1644  55.0264  55.5569  59.7192

          k = 0.5000 0.0000 0.5000 (   117 PWs)   bands (ev):

     1.4547   9.5147  11.1609  17.9482  19.9824  25.7628  26.2369  27.3519
    30.0118  34.6267  36.7420  39.4209  45.2581  45.8358  51.1623  51.5910
    54.3365  55.4247  55.4889  58.8676

          k = 0.0000 0.7500 0.0000 (   113 PWs)   bands (ev):

     2.0174  10.9216  14.0529  14.5326  14.5326  18.2052  33.2168  34.5589
    34.5589  39.7614  41.5236  41.5236  42.7895  42.9488  44.5902  45.5882
    45.5882  52.2400  58.8014  59.6523

          k = 0.8750-0.1250 0.8750 (   114 PWs)   bands (ev):

     4.0796   8.6599  10.5421  14.4145  15.7382  20.0570  32.1709  34.3312
    35.6991  39.5572  41.8279  42.0686  44.9150  45.2350  46.2004  48.0423
    49.4595  51.3311  53.8148  55.3233

          k = 0.7500 0.0000 0.7500 (   110 PWs)   bands (ev):

     6.3711   6.8673   7.9473  15.0223  16.6741  24.2808  30.7141  31.3223
    32.1048  36.6774  42.0554  42.6547  46.3955  47.5533  48.9723  50.6831
    52.1705  53.4248  54.4557  55.1017

          k = 0.0000-1.0000 0.0000 (   116 PWs)   bands (ev):

     5.3294   6.6409  13.4702  14.0530  14.0530  17.6936  35.1704  36.8575
    36.8575  41.3524  41.3524  41.4650  42.0090  44.8925  50.3018  50.3018
    50.4237  50.4237  51.0217  51.4178

          k =-0.2500 0.5000 0.0000 (   114 PWs)   bands (ev):

    -0.2610  12.1576  13.7065  17.2535  20.6491  22.4714  25.6486  29.0465
    30.7776  34.1676  35.1997  39.9610  41.3155  44.0840  44.3450  51.1282
    53.4008  54.0736  59.8894  61.2726

          k = 0.6250-0.3750 0.8750 (   115 PWs)   bands (ev):

     1.8793   8.4224  12.9705  15.0991  21.3043  23.4524  25.6549  29.8028
    32.4051  33.3876  38.3447  41.2190  43.9523  46.3312  47.5992  50.9966
    54.3779  54.7715  57.0442  60.1069

          k = 0.5000-0.2500 0.7500 (   112 PWs)   bands (ev):

     4.6517   4.9575  13.2976  13.9597  21.8015  22.3591  29.0026  29.4500
    31.7492  32.1886  40.0986  40.4776  46.0357  48.5185  49.4412  51.5256
    53.5188  56.7217  57.0414  59.5007

          k = 0.7500-0.2500 1.0000 (   116 PWs)   bands (ev):

     2.5773  10.5673  11.2853  12.4247  19.1078  21.2487  28.1222  34.2060
    34.3175  37.6107  39.6032  40.5390  44.3488  44.8998  47.6342  47.7977
    49.7505  54.1152  56.5733  57.3537

          k = 0.6250-0.1250 0.8750 (   110 PWs)   bands (ev):

     5.1656   7.3373   9.7834  12.0676  20.3571  24.5637  26.6498  30.4564
    34.6704  37.7112  41.1516  42.2843  45.0199  46.5212  48.2427  50.4922
    52.7113  54.2685  56.3805  57.2695

          k = 0.5000 0.0000 0.7500 (   109 PWs)   bands (ev):

     4.2429   7.9401   9.5095  13.1676  21.6019  24.9630  26.1970  29.6249
    32.9727  36.2504  39.8202  40.4594  46.1777  47.6206  50.7556  52.7490
    52.8081  54.0984  55.9505  58.4309

          k =-0.2500-1.0000 0.0000 (   108 PWs)   bands (ev):

     5.8501   7.2003  10.0390  11.7567  18.5853  20.8024  31.2516  31.7471
    37.0019  41.5261  41.7656  42.2130  45.1509  45.6298  47.0427  47.6101
    49.4097  53.2799  55.8136  55.8789

          k =-0.5000-1.0000 0.0000 (   108 PWs)   bands (ev):

     7.4152   7.4152   8.3734   9.6352  24.4628  24.4628  24.8673  27.2267
    37.1561  41.9086  42.7369  42.7369  44.6460  44.6460  45.0853  46.3930
    55.6749  55.6749  58.2877  61.6458

     the Fermi energy is     8.4223 ev

!    total energy              =      -4.18718379 Ry
     Harris-Foulkes estimate   =      -4.18718379 Ry
     estimated scf accuracy    <          2.8E-09 Ry

     The total energy is the sum of the following terms:

     one-electron contribution =       2.93946217 Ry
     hartree contribution      =       0.00984691 Ry
     xc contribution           =      -1.63465839 Ry
     ewald contribution        =      -5.50183450 Ry
     smearing contrib. (-TS)   =       0.00000002 Ry

     convergence has been achieved in   4 iterations

     Writing output data file Al.save/

     init_run     :      0.06s CPU      0.07s WALL (       1 calls)
     electrons    :      0.81s CPU      0.85s WALL (       1 calls)

     Called by init_run:
     wfcinit      :      0.04s CPU      0.05s WALL (       1 calls)
     potinit      :      0.00s CPU      0.00s WALL (       1 calls)
     hinit0       :      0.02s CPU      0.02s WALL (       1 calls)

     Called by electrons:
     c_bands      :      0.75s CPU      0.78s WALL (       5 calls)
     sum_band     :      0.06s CPU      0.07s WALL (       5 calls)
     v_of_rho     :      0.00s CPU      0.00s WALL (       5 calls)
     mix_rho      :      0.00s CPU      0.00s WALL (       5 calls)

     Called by c_bands:
     init_us_2    :      0.02s CPU      0.01s WALL (     319 calls)
     cegterg      :      0.74s CPU      0.77s WALL (     145 calls)

     Called by sum_band:

     Called by *egterg:
     h_psi        :      0.31s CPU      0.33s WALL (     523 calls)
     g_psi        :      0.00s CPU      0.01s WALL (     349 calls)
     cdiaghg      :      0.37s CPU      0.39s WALL (     465 calls)

     Called by h_psi:
     h_psi:pot    :      0.30s CPU      0.32s WALL (     523 calls)
     h_psi:calbec :      0.00s CPU      0.01s WALL (     523 calls)
     vloc_psi     :      0.29s CPU      0.31s WALL (     523 calls)
     add_vuspsi   :      0.00s CPU      0.00s WALL (     523 calls)

     General routines
     calbec       :      0.00s CPU      0.00s WALL (     523 calls)
     fft          :      0.00s CPU      0.00s WALL (      16 calls)
     ffts         :      0.00s CPU      0.00s WALL (       5 calls)
     fftw         :      0.26s CPU      0.27s WALL (   18398 calls)

     Parallel routines

     PWSCF        :     0.90s CPU         0.94s WALL


   This run was terminated on:  17:34:26   5Nov2019            

=------------------------------------------------------------------------------=
   JOB DONE.
=------------------------------------------------------------------------------=
