
     Program PWSCF v.7.1 starts on  5Feb2024 at 13:55:28 

     This program is part of the open-source Quantum ESPRESSO suite
     for quantum simulation of materials; please cite
         "P. Giannozzi et al., J. Phys.:Condens. Matter 21 395502 (2009);
         "P. Giannozzi et al., J. Phys.:Condens. Matter 29 465901 (2017);
         "P. Giannozzi et al., J. Chem. Phys. 152 154105 (2020);
          URL http://www.quantum-espresso.org", 
     in publications or presentations arising from this work. More details at
     http://www.quantum-espresso.org/quote

     Parallel version (MPI), running on     1 processors

     MPI processes distributed on     1 nodes
     181 MiB available memory on the printing compute node when the environment starts

     Waiting for input...
     Reading input from standard input
     Message from routine read_cards :
     DEPRECATED: no units specified in ATOMIC_POSITIONS card
     Message from routine read_cards :
     ATOMIC_POSITIONS: units set to alat

     Current dimensions of program PWSCF are:
     Max number of different atomic species (ntypx) = 10
     Max number of k-points (npk) =  40000
     Max angular momentum in pseudopotentials (lmaxx) =  4

     Subspace diagonalization in iterative solution of the eigenvalue problem:
     a serial algorithm will be used


     G-vector sticks info
     --------------------
     sticks:   dense  smooth     PW     G-vecs:    dense   smooth      PW
     Sum         121     121     55                  941      941     259

     Using Slab Decomposition



     bravais-lattice index     =            2
     lattice parameter (alat)  =       7.5000  a.u.
     unit-cell volume          =     105.4688 (a.u.)^3
     number of atoms/cell      =            1
     number of atomic types    =            1
     number of electrons       =         3.00
     number of Kohn-Sham states=           20
     kinetic-energy cutoff     =      16.0000  Ry
     charge density cutoff     =      64.0000  Ry
     scf convergence threshold =      1.0E-08
     mixing beta               =       0.7000
     number of iterations used =            8  plain     mixing
     Exchange-correlation=  SLA  PZ   NOGX NOGC
                           (   1   1   0   0   0   0   0)

     celldm(1)=   7.500000  celldm(2)=   0.000000  celldm(3)=   0.000000
     celldm(4)=   0.000000  celldm(5)=   0.000000  celldm(6)=   0.000000

     crystal axes: (cart. coord. in units of alat)
               a(1) = (  -0.500000   0.000000   0.500000 )  
               a(2) = (   0.000000   0.500000   0.500000 )  
               a(3) = (  -0.500000   0.500000   0.000000 )  

     reciprocal axes: (cart. coord. in units 2 pi/alat)
               b(1) = ( -1.000000 -1.000000  1.000000 )  
               b(2) = (  1.000000  1.000000  1.000000 )  
               b(3) = ( -1.000000  1.000000 -1.000000 )  


     PseudoPot. # 1 for Al read from file:
     ./Al.vbc.UPF
     MD5 check sum: c34c8b369e81ee50c191f4345b5f621b
     Pseudo is Norm-conserving, Zval =  3.0
     Generated by new atomic code, or converted to UPF format
     Using radial grid of  171 points,  2 beta functions with: 
                l(1) =   0
                l(2) =   1

     atomic species   valence    mass     pseudopotential
        Al             3.00    26.98000     Al( 1.00)

     48 Sym. Ops., with inversion, found



   Cartesian axes

     site n.     atom                  positions (alat units)
         1           Al  tau(   1) = (   0.0000000   0.0000000   0.0000000  )

     number of k points=    47  Methfessel-Paxton smearing, width (Ry)=  0.0000
                       cart. coord. in units 2pi/alat
        k(    1) = (   0.0000000   0.0000000   0.0000000), wk =   0.0020000
        k(    2) = (  -0.1000000   0.1000000  -0.1000000), wk =   0.0160000
        k(    3) = (  -0.2000000   0.2000000  -0.2000000), wk =   0.0160000
        k(    4) = (  -0.3000000   0.3000000  -0.3000000), wk =   0.0160000
        k(    5) = (  -0.4000000   0.4000000  -0.4000000), wk =   0.0160000
        k(    6) = (   0.5000000  -0.5000000   0.5000000), wk =   0.0080000
        k(    7) = (   0.0000000   0.2000000   0.0000000), wk =   0.0120000
        k(    8) = (  -0.1000000   0.3000000  -0.1000000), wk =   0.0480000
        k(    9) = (  -0.2000000   0.4000000  -0.2000000), wk =   0.0480000
        k(   10) = (  -0.3000000   0.5000000  -0.3000000), wk =   0.0480000
        k(   11) = (   0.6000000  -0.4000000   0.6000000), wk =   0.0480000
        k(   12) = (   0.5000000  -0.3000000   0.5000000), wk =   0.0480000
        k(   13) = (   0.4000000  -0.2000000   0.4000000), wk =   0.0480000
        k(   14) = (   0.3000000  -0.1000000   0.3000000), wk =   0.0480000
        k(   15) = (   0.2000000   0.0000000   0.2000000), wk =   0.0240000
        k(   16) = (   0.0000000   0.4000000   0.0000000), wk =   0.0120000
        k(   17) = (  -0.1000000   0.5000000  -0.1000000), wk =   0.0480000
        k(   18) = (  -0.2000000   0.6000000  -0.2000000), wk =   0.0480000
        k(   19) = (   0.7000000  -0.3000000   0.7000000), wk =   0.0480000
        k(   20) = (   0.6000000  -0.2000000   0.6000000), wk =   0.0480000
        k(   21) = (   0.5000000  -0.1000000   0.5000000), wk =   0.0480000
        k(   22) = (   0.4000000   0.0000000   0.4000000), wk =   0.0240000
        k(   23) = (   0.0000000   0.6000000   0.0000000), wk =   0.0120000
        k(   24) = (  -0.1000000   0.7000000  -0.1000000), wk =   0.0480000
        k(   25) = (   0.8000000  -0.2000000   0.8000000), wk =   0.0480000
        k(   26) = (   0.7000000  -0.1000000   0.7000000), wk =   0.0480000
        k(   27) = (   0.6000000  -0.0000000   0.6000000), wk =   0.0240000
        k(   28) = (   0.0000000   0.8000000   0.0000000), wk =   0.0120000
        k(   29) = (   0.9000000  -0.1000000   0.9000000), wk =   0.0480000
        k(   30) = (   0.8000000   0.0000000   0.8000000), wk =   0.0240000
        k(   31) = (   0.0000000  -1.0000000   0.0000000), wk =   0.0060000
        k(   32) = (  -0.2000000   0.4000000   0.0000000), wk =   0.0480000
        k(   33) = (  -0.3000000   0.5000000  -0.1000000), wk =   0.0960000
        k(   34) = (   0.6000000  -0.4000000   0.8000000), wk =   0.0960000
        k(   35) = (   0.5000000  -0.3000000   0.7000000), wk =   0.0480000
        k(   36) = (  -0.2000000   0.6000000   0.0000000), wk =   0.0480000
        k(   37) = (   0.7000000  -0.3000000   0.9000000), wk =   0.0960000
        k(   38) = (   0.6000000  -0.2000000   0.8000000), wk =   0.0960000
        k(   39) = (   0.5000000  -0.1000000   0.7000000), wk =   0.0960000
        k(   40) = (   0.4000000   0.0000000   0.6000000), wk =   0.0480000
        k(   41) = (   0.8000000  -0.2000000   1.0000000), wk =   0.0480000
        k(   42) = (   0.7000000  -0.1000000   0.9000000), wk =   0.0960000
        k(   43) = (   0.6000000   0.0000000   0.8000000), wk =   0.0480000
        k(   44) = (  -0.2000000  -1.0000000   0.0000000), wk =   0.0240000
        k(   45) = (   0.6000000  -0.2000000   1.0000000), wk =   0.0480000
        k(   46) = (   0.5000000  -0.1000000   0.9000000), wk =   0.0480000
        k(   47) = (  -0.4000000  -1.0000000   0.0000000), wk =   0.0240000

     Dense  grid:      941 G-vectors     FFT dimensions: (  15,  15,  15)

     Estimated max dynamical RAM per process >       2.57 MB

     Initial potential from superposition of free atoms

     starting charge       2.9979, renormalised to       3.0000
     Starting wfcs are    9 randomized atomic wfcs +   11 random wfcs

     total cpu time spent up to now is        0.1 secs

     Self-consistent Calculation

     iteration #  1     ecut=    16.00 Ry     beta= 0.70
     Davidson diagonalization with overlap
     ethr =  1.00E-02,  avg # of iterations =  5.7

     Threshold (ethr) on eigenvalues was too large:
     Diagonalizing with lowered threshold

     Davidson diagonalization with overlap
     ethr =  2.01E-04,  avg # of iterations =  3.4

     total cpu time spent up to now is        0.5 secs

     total energy              =      -4.18636254 Ry
     estimated scf accuracy    <       0.00602862 Ry

     iteration #  2     ecut=    16.00 Ry     beta= 0.70
     Davidson diagonalization with overlap
     ethr =  2.01E-04,  avg # of iterations =  1.0

     total cpu time spent up to now is        0.6 secs

     total energy              =      -4.18635857 Ry
     estimated scf accuracy    <       0.00046314 Ry

     iteration #  3     ecut=    16.00 Ry     beta= 0.70
     Davidson diagonalization with overlap
     ethr =  1.54E-05,  avg # of iterations =  1.7

     total cpu time spent up to now is        0.8 secs

     total energy              =      -4.18636116 Ry
     estimated scf accuracy    <       0.00000037 Ry

     iteration #  4     ecut=    16.00 Ry     beta= 0.70
     Davidson diagonalization with overlap
     ethr =  1.22E-08,  avg # of iterations =  5.6

     total cpu time spent up to now is        1.0 secs

     End of self-consistent calculation

          k = 0.0000 0.0000 0.0000 (   113 PWs)   bands (ev):

    -3.1915  21.1766  21.1766  21.1766  22.5536  22.5536  22.5536  25.0575
    28.4659  28.4659  31.0435  33.2360  33.2360  33.2360  40.6669  64.4566
    64.4566  64.4566  66.8314  66.8314

          k =-0.1000 0.1000-0.1000 (   116 PWs)   bands (ev):

    -2.9067  17.7696  20.4019  20.4019  23.2910  23.7457  23.7457  27.0008
    27.0008  27.6318  30.0437  34.5098  35.3327  35.3327  41.8392  59.2916
    59.2916  61.3476  65.9258  65.9258

          k =-0.2000 0.2000-0.2000 (   122 PWs)   bands (ev):

    -2.0574  13.7042  19.6230  19.6230  23.0595  24.2284  24.2284  26.4666
    26.4666  28.2805  31.6290  37.6702  39.2756  39.2756  44.8053  53.0372
    53.0372  56.6137  66.5493  66.5493

          k =-0.3000 0.3000-0.3000 (   114 PWs)   bands (ev):

    -0.6550   9.9579  19.2694  19.2694  22.4460  22.4460  22.9225  26.5064
    29.0665  29.0665  35.1310  42.4038  43.7091  43.7091  47.6968  47.6968
    48.6863  52.5968  67.3272  67.3272

          k =-0.4000 0.4000-0.4000 (   114 PWs)   bands (ev):

     1.2726   6.6117  19.3675  19.3675  20.9581  20.9581  23.1516  24.9911
    32.2029  32.2029  38.1237  42.0303  42.0303  47.0410  48.9846  49.8437
    49.8437  55.0358  61.2616  62.3741

          k = 0.5000-0.5000 0.5000 (   120 PWs)   bands (ev):

     3.5940   3.8148  19.8907  19.8907  19.9614  19.9614  23.7157  23.9782
    34.4220  34.4220  39.3053  39.3053  39.7498  45.8656  53.7490  54.8647
    54.8647  55.5543  56.7401  56.7401

          k = 0.0000 0.2000 0.0000 (   117 PWs)   bands (ev):

    -2.8120  18.9699  18.9699  19.2276  21.8199  24.6097  25.3186  25.3186
    27.7602  28.8237  31.7068  33.6927  33.6927  36.6762  42.6126  59.1617
    59.1617  59.7869  63.3300  64.7736

          k =-0.1000 0.3000-0.1000 (   119 PWs)   bands (ev):

    -2.1506  15.1907  17.9806  19.4097  21.8629  22.7153  25.7671  26.7124
    28.3419  30.5870  31.3988  36.1739  36.4154  39.0637  45.6210  52.9818
    54.5928  60.0631  60.9474  62.7787

          k =-0.2000 0.4000-0.2000 (   117 PWs)   bands (ev):

    -0.9340  11.3698  17.4542  19.0796  19.8283  24.7134  25.3251  25.8617
    28.9052  30.4119  35.0874  40.3892  40.9144  42.7909  47.2563  49.4363
    49.8211  56.0488  61.0573  63.3584

          k =-0.3000 0.5000-0.3000 (   111 PWs)   bands (ev):

     0.8178   7.9039  17.3915  18.0910  19.1246  23.7433  25.5044  26.8844
    28.6173  33.2746  38.3245  41.6233  43.8006  46.1533  46.3488  48.8060
    50.9299  55.5285  60.3654  62.2152

          k = 0.6000-0.4000 0.6000 (   114 PWs)   bands (ev):

     3.0712   4.8642  16.8842  17.7898  19.5676  22.5670  25.5525  26.3423
    31.6460  34.4939  39.5846  39.7018  41.4532  47.6207  51.6079  51.8977
    53.5670  55.5926  58.0702  60.3248

          k = 0.5000-0.3000 0.5000 (   114 PWs)   bands (ev):

     2.2676   5.8238  16.1553  18.6569  20.4964  21.8541  24.8688  27.1296
    31.5260  33.2002  38.5434  40.7546  42.8965  47.4779  48.7035  51.0351
    54.0652  58.0589  58.2106  58.3154

          k = 0.4000-0.2000 0.4000 (   116 PWs)   bands (ev):

     0.1756   9.0074  15.9173  19.9835  21.6118  21.8874  24.4703  28.1527
    28.2351  31.1231  37.6958  41.3475  44.0558  44.5295  46.8495  49.4509
    50.8087  53.4534  62.0184  63.1484

          k = 0.3000-0.1000 0.3000 (   116 PWs)   bands (ev):

    -1.4000  12.5767  16.1895  21.5348  22.0131  23.6890  24.3724  25.2846
    27.5936  30.6862  34.1633  38.0181  39.5336  43.2519  47.3716  47.8618
    53.5194  56.4024  60.8944  63.0359

          k = 0.2000 0.0000 0.2000 (   119 PWs)   bands (ev):

    -2.4339  16.1097  17.2924  21.9150  22.8551  24.0854  24.5730  25.3921
    26.0921  30.3331  31.5095  34.2949  36.6035  38.9084  43.8239  53.5116
    58.7554  60.3929  60.9059  63.2191

          k = 0.0000 0.4000 0.0000 (   121 PWs)   bands (ev):

    -1.6808  16.7809  16.8165  16.8165  19.2333  20.3596  28.9652  28.9652
    29.8816  32.4669  34.1828  35.2346  35.2346  39.1860  48.8701  53.3438
    53.3438  53.4746  58.6409  65.6244

          k =-0.1000 0.5000-0.1000 (   119 PWs)   bands (ev):

    -0.6548  13.1812  16.1268  16.8145  17.5750  21.0554  28.5562  29.7053
    31.8554  32.7088  36.0588  38.0671  39.7459  40.9593  47.4505  49.5397
    53.0546  54.3027  57.9733  62.2049

          k =-0.2000 0.6000-0.2000 (   113 PWs)   bands (ev):

     0.9089   9.6656  14.9552  15.9034  17.6026  23.5781  26.9961  29.6248
    31.3217  34.5168  39.5688  41.5862  43.2620  43.5113  45.3500  46.7428
    55.5679  56.1331  57.8454  58.9895

          k = 0.7000-0.3000 0.7000 (   115 PWs)   bands (ev):

     2.9808   6.5156  13.5548  16.1422  17.9443  25.7039  26.4870  29.1692
    31.0427  34.7394  39.9135  40.7743  43.4258  48.2423  49.1466  51.2024
    53.0226  53.8127  56.8043  60.2738

          k = 0.6000-0.2000 0.6000 (   111 PWs)   bands (ev):

     3.7807   5.5551  12.6593  16.8518  18.7595  24.8440  27.3761  30.6125
    31.3009  31.4103  37.3158  44.1548  44.4354  46.7337  50.6931  53.0397
    53.9153  55.5609  56.8694  60.2965

          k = 0.5000-0.1000 0.5000 (   113 PWs)   bands (ev):

     1.5457   8.5093  12.3172  18.0267  20.0492  24.4375  26.8239  27.7254
    30.4436  32.9635  37.4585  40.5327  44.3306  47.1753  48.6182  52.5620
    52.9857  56.5459  56.8660  59.3561

          k = 0.4000 0.0000 0.4000 (   121 PWs)   bands (ev):

    -0.1931  11.3711  13.0009  19.6697  21.7643  24.1193  24.9813  25.9667
    28.6621  34.1747  35.0502  40.8351  41.7064  42.9411  47.7594  51.4877
    53.3727  56.0069  56.1886  59.4339

          k = 0.0000 0.6000 0.0000 (   117 PWs)   bands (ev):

     0.1770  14.2737  14.9530  15.2786  15.2786  18.9619  31.6008  32.3838
    32.3838  37.3525  38.0739  38.3521  38.3521  41.2294  48.0194  48.3501
    48.3501  54.5462  57.2219  64.0451

          k =-0.1000 0.7000-0.1000 (   114 PWs)   bands (ev):

     1.5442  11.7446  12.2710  14.8970  16.1656  19.9027  30.6202  32.8342
    35.2299  36.6319  41.2331  41.4628  42.2323  43.1161  44.2617  45.8630
    49.4216  53.9679  58.2682  61.2438

          k = 0.8000-0.2000 0.8000 (   110 PWs)   bands (ev):

     3.4203   8.6161  10.6315  14.9788  16.5715  22.7441  29.2933  31.9516
    35.2139  36.2062  40.6734  42.0104  45.1499  45.9116  46.7107  50.0858
    50.9854  52.0360  56.1451  57.8880

          k = 0.7000-0.1000 0.7000 (   114 PWs)   bands (ev):

     5.6142   5.9379   9.5803  15.5235  17.2779  26.1935  28.3100  30.6834
    31.5494  35.4036  38.8703  44.4055  45.4325  48.3825  50.2919  50.9406
    52.7304  54.5175  56.7756  57.6598

          k = 0.6000-0.0000 0.6000 (   111 PWs)   bands (ev):

     3.4292   8.0012   9.6015  16.5387  18.4483  27.7487  27.8099  29.0346
    29.4809  34.0903  38.6821  39.8013  48.5980  49.2025  50.3011  51.1763
    53.8375  55.9766  56.6087  58.5051

          k = 0.0000 0.8000 0.0000 (   112 PWs)   bands (ev):

     2.7084   9.8823  13.8423  14.3591  14.3591  18.0237  33.7654  35.2114
    35.2114  40.4783  42.2237  42.2237  43.5281  43.6173  44.4530  45.3598
    45.3598  51.6716  57.4019  57.6712

          k = 0.9000-0.1000 0.9000 (   114 PWs)   bands (ev):

     4.3538   8.1143  11.1765  14.2832  15.4617  19.2895  33.1001  35.0748
    35.8864  40.2599  41.8937  42.2429  44.1937  45.0211  46.5199  47.9653
    49.5232  51.1715  53.1723  54.2213

          k = 0.8000 0.0000 0.8000 (   110 PWs)   bands (ev):

     5.9945   7.2935   8.4199  14.6717  16.2179  22.4534  31.8000  32.6294
    33.2410  37.8051  43.1325  43.7001  45.3505  45.9346  47.8528  50.1774
    51.4554  52.5577  52.9143  54.3361

          k = 0.0000-1.0000 0.0000 (   116 PWs)   bands (ev):

     5.3282   6.6414  13.4685  14.0520  14.0520  17.6936  35.1688  36.8546
    36.8546  41.3516  41.3516  41.4640  42.0060  44.8943  50.3027  50.3027
    50.4233  50.4233  51.0225  51.4154

          k =-0.2000 0.4000 0.0000 (   115 PWs)   bands (ev):

    -1.3062  13.7456  15.1745  19.5427  20.4960  22.3613  26.1389  27.3946
    29.0213  33.0569  33.6273  36.7857  39.1128  41.7599  47.8613  49.3291
    53.5830  56.1770  60.6958  62.1209

          k =-0.3000 0.5000-0.1000 (   116 PWs)   bands (ev):

     0.0840  10.5483  14.2693  17.5332  20.8423  23.9139  24.7911  27.9165
    30.7675  32.3888  37.3592  40.6458  42.8258  43.2716  46.0057  49.5955
    53.6146  56.2523  56.9435  62.3211

          k = 0.6000-0.4000 0.8000 (   116 PWs)   bands (ev):

     1.9970   7.2851  14.2775  16.0010  21.0410  22.7894  27.0598  28.6018
    30.3170  33.5567  38.5344  41.5047  44.1973  45.5874  48.8487  51.8332
    52.1845  56.3402  57.8877  59.6894

          k = 0.5000-0.3000 0.7000 (   116 PWs)   bands (ev):

     4.2712   4.5504  14.6129  15.1649  21.4480  21.9425  27.9362  29.5862
    30.6337  32.5345  39.7402  40.1069  44.5590  48.8696  50.2643  50.9573
    54.0729  56.5066  57.9209  59.0535

          k =-0.2000 0.6000 0.0000 (   116 PWs)   bands (ev):

     0.5431  12.0510  13.4805  14.7579  18.8724  21.0797  27.7588  31.6205
    33.1873  35.1886  36.6920  41.5492  42.2150  43.3136  43.7309  48.6385
    51.4376  57.1388  57.7237  61.6385

          k = 0.7000-0.3000 0.9000 (   115 PWs)   bands (ev):

     2.2651   9.1786  12.5859  13.3122  19.6156  23.2670  26.3097  31.9701
    34.3449  34.6062  39.4328  41.2202  43.4562  46.1554  46.9001  49.5186
    52.1394  54.7401  57.7634  58.8292

          k = 0.6000-0.2000 0.8000 (   114 PWs)   bands (ev):

     4.4717   6.2490  11.5964  13.4147  20.1831  24.8773  26.7746  30.5814
    32.8724  34.3287  40.2479  41.4061  45.9944  47.8652  49.1163  50.9880
    54.2174  54.6589  56.4396  57.1701

          k = 0.5000-0.1000 0.7000 (   113 PWs)   bands (ev):

     3.6924   7.1377  10.9404  14.2823  21.1247  24.1759  27.4274  29.9607
    31.7637  34.4031  37.9689  42.4322  44.9983  48.4601  50.8099  52.4085
    53.4978  54.1199  57.3291  57.9546

          k = 0.4000 0.0000 0.6000 (   114 PWs)   bands (ev):

     1.6363   9.6838  11.3136  15.6699  22.4477  23.2769  24.8599  29.9897
    31.5752  34.9400  37.0946  39.5943  45.2110  45.9082  49.4286  50.0791
    53.6994  56.5365  56.8347  59.6140

          k = 0.8000-0.2000 1.0000 (   113 PWs)   bands (ev):

     3.0646  10.1902  11.0295  12.6978  17.8714  20.2224  30.0122  34.8150
    35.1152  39.0101  41.0967  41.1054  43.7175  44.1899  47.1848  48.1485
    48.5033  52.7056  55.2497  55.9116

          k = 0.7000-0.1000 0.9000 (   107 PWs)   bands (ev):

     5.0481   8.3673   8.9779  12.3763  18.9669  22.7358  28.7885  31.7560
    35.2895  38.9510  41.6598  42.6792  44.6292  46.0362  47.5768  49.6315
    51.8488  52.6347  54.7713  56.5478

          k = 0.6000 0.0000 0.8000 (   110 PWs)   bands (ev):

     5.8586   6.9958   8.5359  13.0522  19.8729  26.1648  27.3929  28.6717
    33.7085  37.0675  41.2861  41.7464  45.6101  47.9049  49.0574  51.3483
    52.7328  54.0143  57.7749  58.5629

          k =-0.2000-1.0000 0.0000 (   112 PWs)   bands (ev):

     5.6615   7.0011  10.6900  12.3430  17.5353  19.9231  32.6585  32.7628
    36.9545  41.4427  41.6167  42.0430  44.8981  45.6404  47.7087  48.1164
    48.7832  52.1178  54.8047  54.9567

          k = 0.6000-0.2000 1.0000 (   111 PWs)   bands (ev):

     4.1263   8.6719  10.1309  11.5277  22.3160  23.6592  25.1434  30.9994
    34.6028  37.9324  40.4154  40.5229  44.7939  46.0054  50.2098  51.6993
    52.4357  53.0172  55.2636  58.3016

          k = 0.5000-0.1000 0.9000 (   112 PWs)   bands (ev):

     6.2816   6.5831   9.8527  10.7633  23.2780  23.8342  26.3617  28.0184
    35.4741  38.5872  41.7283  42.1314  44.9934  45.5692  47.5047  50.3782
    53.4940  55.3166  58.8643  59.4879

          k =-0.4000-1.0000 0.0000 (   112 PWs)   bands (ev):

     6.6610   7.9899   8.3333  10.1717  21.9856  23.6038  27.0862  28.5705
    37.1201  41.8150  42.3498  42.7486  44.5793  45.2185  45.3610  46.5932
    53.0513  57.5404  57.5726  58.2510

     the Fermi energy is     8.3674 ev

!    total energy              =      -4.18636117 Ry
     estimated scf accuracy    <          3.1E-09 Ry
     smearing contrib. (-TS)   =      -0.00000006 Ry
     internal energy E=F+TS    =      -4.18636111 Ry

     The total energy is F=E-TS. E is the sum of the following terms:
     one-electron contribution =       2.94027261 Ry
     hartree contribution      =       0.00965437 Ry
     xc contribution           =      -1.63445359 Ry
     ewald contribution        =      -5.50183450 Ry

     convergence has been achieved in   4 iterations

     Writing all to output data dir ./Al.save/

     init_run     :      0.05s CPU      0.05s WALL (       1 calls)
     electrons    :      0.92s CPU      0.93s WALL (       1 calls)

     Called by init_run:
     wfcinit      :      0.05s CPU      0.05s WALL (       1 calls)
     potinit      :      0.00s CPU      0.00s WALL (       1 calls)
     hinit0       :      0.00s CPU      0.00s WALL (       1 calls)

     Called by electrons:
     c_bands      :      0.82s CPU      0.83s WALL (       5 calls)
     sum_band     :      0.09s CPU      0.09s WALL (       5 calls)
     v_of_rho     :      0.00s CPU      0.00s WALL (       5 calls)
     mix_rho      :      0.00s CPU      0.00s WALL (       5 calls)

     Called by c_bands:
     init_us_2    :      0.01s CPU      0.01s WALL (     517 calls)
     init_us_2:cp :      0.01s CPU      0.01s WALL (     517 calls)
     cegterg      :      0.82s CPU      0.82s WALL (     235 calls)

     Called by *egterg:
     cdiaghg      :      0.30s CPU      0.31s WALL (    1010 calls)
     h_psi        :      0.49s CPU      0.49s WALL (    1104 calls)
     g_psi        :      0.00s CPU      0.00s WALL (     822 calls)

     Called by h_psi:
     h_psi:calbec :      0.00s CPU      0.00s WALL (    1104 calls)
     vloc_psi     :      0.48s CPU      0.48s WALL (    1104 calls)
     add_vuspsi   :      0.00s CPU      0.00s WALL (    1104 calls)

     General routines
     calbec       :      0.00s CPU      0.00s WALL (    1104 calls)
     fft          :      0.00s CPU      0.00s WALL (      15 calls)
     ffts         :      0.00s CPU      0.00s WALL (       5 calls)
     fftw         :      0.48s CPU      0.48s WALL (   30948 calls)

     Parallel routines

     PWSCF        :      0.98s CPU      1.01s WALL


   This run was terminated on:  13:55:29   5Feb2024            

=------------------------------------------------------------------------------=
   JOB DONE.
=------------------------------------------------------------------------------=
