
     Program PWSCF v.4.3.2      starts on 27Mar2012 at 14:20: 1 

     This program is part of the open-source Quantum ESPRESSO suite
     for quantum simulation of materials; please cite
         "P. Giannozzi et al., J. Phys.:Condens. Matter 21 395502 (2009);
          URL http://www.quantum-espresso.org", 
     in publications or presentations arising from this work. More details at
     http://www.quantum-espresso.org/wiki/index.php/Citing_Quantum-ESPRESSO

     Parallel version (MPI), running on     1 processors

     Current dimensions of program PWSCF are:
     Max number of different atomic species (ntypx) = 10
     Max number of k-points (npk) =  40000
     Max angular momentum in pseudopotentials (lmaxx) =  3
     Waiting for input...
     Reading input from stdin

     Subspace diagonalization in iterative solution of the eigenvalue problem:
     a serial algorithm will be used


     G-vector sticks info
     --------------------
     sticks:   dense  smooth     PW     G-vecs:    dense   smooth      PW
     Sum         361     361    121                 4477     4477     869



     bravais-lattice index     =            2
     lattice parameter (alat)  =      10.1830  a.u.
     unit-cell volume          =     263.9777 (a.u.)^3
     number of atoms/cell      =            2
     number of atomic types    =            1
     number of electrons       =         8.00
     number of Kohn-Sham states=           10
     kinetic-energy cutoff     =      25.0000  Ry
     charge density cutoff     =     100.0000  Ry
     convergence threshold     =      1.0E-08
     mixing beta               =       0.7000
     number of iterations used =            8  plain     mixing
     Exchange-correlation      =  SLA  PZ   NOGX NOGC ( 1 1 0 0 0)
     EXX-fraction              =        0.00

     celldm(1)=  10.183000  celldm(2)=   0.000000  celldm(3)=   0.000000
     celldm(4)=   0.000000  celldm(5)=   0.000000  celldm(6)=   0.000000

     crystal axes: (cart. coord. in units of alat)
               a(1) = (  -0.500000   0.000000   0.500000 )  
               a(2) = (   0.000000   0.500000   0.500000 )  
               a(3) = (  -0.500000   0.500000   0.000000 )  

     reciprocal axes: (cart. coord. in units 2 pi/alat)
               b(1) = ( -1.000000 -1.000000  1.000000 )  
               b(2) = (  1.000000  1.000000  1.000000 )  
               b(3) = ( -1.000000  1.000000 -1.000000 )  


     PseudoPot. # 1 for Si read from file:
     /home/dsangalli/Personal_files/Workshop/2012_Losanna_Cecam/trunk/GW_tutorial/Si/gs/pwscf/psps/Si.vbc.UPF
     MD5 check sum: bcd8ae23180a2f07cc8655fe7dcd9644
     Pseudo is Norm-conserving, Zval =  4.0
     Generated by new atomic code, or converted to UPF format
     Using radial grid of  431 points,  2 beta functions with: 
                l(1) =   0
                l(2) =   1

     atomic species   valence    mass     pseudopotential
        Si             4.00    28.08600     Si( 1.00)

     24 Sym.Ops. (no inversion)

                                    s                        frac. trans.

      isym =  1     identity                                     

 cryst.   s( 1) = (     1          0          0      )    f =(  0.0000000 )
                  (     0          1          0      )       (  0.0000000 )
                  (     0          0          1      )       (  0.0000000 )

 cart.    s( 1) = (  1.0000000  0.0000000  0.0000000 )    f =(  0.0000000 )
                  (  0.0000000  1.0000000  0.0000000 )       (  0.0000000 )
                  (  0.0000000  0.0000000  1.0000000 )       (  0.0000000 )


      isym =  2     180 deg rotation - cart. axis [0,0,1]        

 cryst.   s( 2) = (     0          1         -1      )    f =(  0.0000000 )
                  (     1          0         -1      )       (  0.0000000 )
                  (     0          0         -1      )       (  0.0000000 )

 cart.    s( 2) = ( -1.0000000  0.0000000  0.0000000 )    f =(  0.0000000 )
                  (  0.0000000 -1.0000000  0.0000000 )       (  0.0000000 )
                  (  0.0000000  0.0000000  1.0000000 )       (  0.0000000 )


      isym =  3     180 deg rotation - cart. axis [0,1,0]        

 cryst.   s( 3) = (    -1          0          0      )    f =(  0.0000000 )
                  (    -1          0          1      )       (  0.0000000 )
                  (    -1          1          0      )       (  0.0000000 )

 cart.    s( 3) = ( -1.0000000  0.0000000  0.0000000 )    f =(  0.0000000 )
                  (  0.0000000  1.0000000  0.0000000 )       (  0.0000000 )
                  (  0.0000000  0.0000000 -1.0000000 )       (  0.0000000 )


      isym =  4     180 deg rotation - cart. axis [1,0,0]        

 cryst.   s( 4) = (     0         -1          1      )    f =(  0.0000000 )
                  (     0         -1          0      )       (  0.0000000 )
                  (     1         -1          0      )       (  0.0000000 )

 cart.    s( 4) = (  1.0000000  0.0000000  0.0000000 )    f =(  0.0000000 )
                  (  0.0000000 -1.0000000  0.0000000 )       (  0.0000000 )
                  (  0.0000000  0.0000000 -1.0000000 )       (  0.0000000 )


      isym =  5     120 deg rotation - cart. axis [-1,-1,-1]     

 cryst.   s( 5) = (    -1          0          1      )    f =(  0.0000000 )
                  (    -1          1          0      )       (  0.0000000 )
                  (    -1          0          0      )       (  0.0000000 )

 cart.    s( 5) = (  0.0000000  1.0000000  0.0000000 )    f =(  0.0000000 )
                  (  0.0000000  0.0000000  1.0000000 )       (  0.0000000 )
                  (  1.0000000  0.0000000  0.0000000 )       (  0.0000000 )


      isym =  6     120 deg rotation - cart. axis [-1,1,1]       

 cryst.   s( 6) = (     0          1          0      )    f =(  0.0000000 )
                  (     0          0          1      )       (  0.0000000 )
                  (     1          0          0      )       (  0.0000000 )

 cart.    s( 6) = (  0.0000000 -1.0000000  0.0000000 )    f =(  0.0000000 )
                  (  0.0000000  0.0000000  1.0000000 )       (  0.0000000 )
                  ( -1.0000000  0.0000000  0.0000000 )       (  0.0000000 )


      isym =  7     120 deg rotation - cart. axis [1,1,-1]       

 cryst.   s( 7) = (     1          0         -1      )    f =(  0.0000000 )
                  (     0          0         -1      )       (  0.0000000 )
                  (     0          1         -1      )       (  0.0000000 )

 cart.    s( 7) = (  0.0000000  1.0000000  0.0000000 )    f =(  0.0000000 )
                  (  0.0000000  0.0000000 -1.0000000 )       (  0.0000000 )
                  ( -1.0000000  0.0000000  0.0000000 )       (  0.0000000 )


      isym =  8     120 deg rotation - cart. axis [1,-1,1]       

 cryst.   s( 8) = (     0         -1          0      )    f =(  0.0000000 )
                  (     1         -1          0      )       (  0.0000000 )
                  (     0         -1          1      )       (  0.0000000 )

 cart.    s( 8) = (  0.0000000 -1.0000000  0.0000000 )    f =(  0.0000000 )
                  (  0.0000000  0.0000000 -1.0000000 )       (  0.0000000 )
                  (  1.0000000  0.0000000  0.0000000 )       (  0.0000000 )


      isym =  9     120 deg rotation - cart. axis [1,1,1]        

 cryst.   s( 9) = (     0          0         -1      )    f =(  0.0000000 )
                  (     0          1         -1      )       (  0.0000000 )
                  (     1          0         -1      )       (  0.0000000 )

 cart.    s( 9) = (  0.0000000  0.0000000  1.0000000 )    f =(  0.0000000 )
                  (  1.0000000  0.0000000  0.0000000 )       (  0.0000000 )
                  (  0.0000000  1.0000000  0.0000000 )       (  0.0000000 )


      isym = 10     120 deg rotation - cart. axis [-1,1,-1]      

 cryst.   s(10) = (    -1          1          0      )    f =(  0.0000000 )
                  (    -1          0          0      )       (  0.0000000 )
                  (    -1          0          1      )       (  0.0000000 )

 cart.    s(10) = (  0.0000000  0.0000000  1.0000000 )    f =(  0.0000000 )
                  ( -1.0000000  0.0000000  0.0000000 )       (  0.0000000 )
                  (  0.0000000 -1.0000000  0.0000000 )       (  0.0000000 )


      isym = 11     120 deg rotation - cart. axis [1,-1,-1]      

 cryst.   s(11) = (     0          0          1      )    f =(  0.0000000 )
                  (     1          0          0      )       (  0.0000000 )
                  (     0          1          0      )       (  0.0000000 )

 cart.    s(11) = (  0.0000000  0.0000000 -1.0000000 )    f =(  0.0000000 )
                  ( -1.0000000  0.0000000  0.0000000 )       (  0.0000000 )
                  (  0.0000000  1.0000000  0.0000000 )       (  0.0000000 )


      isym = 12     120 deg rotation - cart. axis [-1,-1,1]      

 cryst.   s(12) = (     1         -1          0      )    f =(  0.0000000 )
                  (     0         -1          1      )       (  0.0000000 )
                  (     0         -1          0      )       (  0.0000000 )

 cart.    s(12) = (  0.0000000  0.0000000 -1.0000000 )    f =(  0.0000000 )
                  (  1.0000000  0.0000000  0.0000000 )       (  0.0000000 )
                  (  0.0000000 -1.0000000  0.0000000 )       (  0.0000000 )


      isym = 13     inv. 180 deg rotation - cart. axis [1,1,0]   

 cryst.   s(13) = (     0          1          0      )    f =(  0.0000000 )
                  (     1          0          0      )       (  0.0000000 )
                  (     0          0          1      )       (  0.0000000 )

 cart.    s(13) = (  0.0000000 -1.0000000  0.0000000 )    f =(  0.0000000 )
                  ( -1.0000000  0.0000000  0.0000000 )       (  0.0000000 )
                  (  0.0000000  0.0000000  1.0000000 )       (  0.0000000 )


      isym = 14     inv. 180 deg rotation - cart. axis [1,-1,0]  

 cryst.   s(14) = (     1          0         -1      )    f =(  0.0000000 )
                  (     0          1         -1      )       (  0.0000000 )
                  (     0          0         -1      )       (  0.0000000 )

 cart.    s(14) = (  0.0000000  1.0000000  0.0000000 )    f =(  0.0000000 )
                  (  1.0000000  0.0000000  0.0000000 )       (  0.0000000 )
                  (  0.0000000  0.0000000  1.0000000 )       (  0.0000000 )


      isym = 15     inv.  90 deg rotation - cart. axis [0,0,-1]  

 cryst.   s(15) = (     0         -1          0      )    f =(  0.0000000 )
                  (     0         -1          1      )       (  0.0000000 )
                  (     1         -1          0      )       (  0.0000000 )

 cart.    s(15) = (  0.0000000 -1.0000000  0.0000000 )    f =(  0.0000000 )
                  (  1.0000000  0.0000000  0.0000000 )       (  0.0000000 )
                  (  0.0000000  0.0000000 -1.0000000 )       (  0.0000000 )


      isym = 16     inv.  90 deg rotation - cart. axis [0,0,1]   

 cryst.   s(16) = (    -1          0          1      )    f =(  0.0000000 )
                  (    -1          0          0      )       (  0.0000000 )
                  (    -1          1          0      )       (  0.0000000 )

 cart.    s(16) = (  0.0000000  1.0000000  0.0000000 )    f =(  0.0000000 )
                  ( -1.0000000  0.0000000  0.0000000 )       (  0.0000000 )
                  (  0.0000000  0.0000000 -1.0000000 )       (  0.0000000 )


      isym = 17     inv. 180 deg rotation - cart. axis [1,0,1]   

 cryst.   s(17) = (     1          0          0      )    f =(  0.0000000 )
                  (     0          0          1      )       (  0.0000000 )
                  (     0          1          0      )       (  0.0000000 )

 cart.    s(17) = (  0.0000000  0.0000000 -1.0000000 )    f =(  0.0000000 )
                  (  0.0000000  1.0000000  0.0000000 )       (  0.0000000 )
                  ( -1.0000000  0.0000000  0.0000000 )       (  0.0000000 )


      isym = 18     inv. 180 deg rotation - cart. axis [-1,0,1]  

 cryst.   s(18) = (    -1          0          0      )    f =(  0.0000000 )
                  (    -1          1          0      )       (  0.0000000 )
                  (    -1          0          1      )       (  0.0000000 )

 cart.    s(18) = (  0.0000000  0.0000000  1.0000000 )    f =(  0.0000000 )
                  (  0.0000000  1.0000000  0.0000000 )       (  0.0000000 )
                  (  1.0000000  0.0000000  0.0000000 )       (  0.0000000 )


      isym = 19     inv.  90 deg rotation - cart. axis [0,1,0]   

 cryst.   s(19) = (     0         -1          1      )    f =(  0.0000000 )
                  (     1         -1          0      )       (  0.0000000 )
                  (     0         -1          0      )       (  0.0000000 )

 cart.    s(19) = (  0.0000000  0.0000000 -1.0000000 )    f =(  0.0000000 )
                  (  0.0000000 -1.0000000  0.0000000 )       (  0.0000000 )
                  (  1.0000000  0.0000000  0.0000000 )       (  0.0000000 )


      isym = 20     inv.  90 deg rotation - cart. axis [0,-1,0]  

 cryst.   s(20) = (     0          1         -1      )    f =(  0.0000000 )
                  (     0          0         -1      )       (  0.0000000 )
                  (     1          0         -1      )       (  0.0000000 )

 cart.    s(20) = (  0.0000000  0.0000000  1.0000000 )    f =(  0.0000000 )
                  (  0.0000000 -1.0000000  0.0000000 )       (  0.0000000 )
                  ( -1.0000000  0.0000000  0.0000000 )       (  0.0000000 )


      isym = 21     inv. 180 deg rotation - cart. axis [0,1,1]   

 cryst.   s(21) = (     1         -1          0      )    f =(  0.0000000 )
                  (     0         -1          0      )       (  0.0000000 )
                  (     0         -1          1      )       (  0.0000000 )

 cart.    s(21) = (  1.0000000  0.0000000  0.0000000 )    f =(  0.0000000 )
                  (  0.0000000  0.0000000 -1.0000000 )       (  0.0000000 )
                  (  0.0000000 -1.0000000  0.0000000 )       (  0.0000000 )


      isym = 22     inv. 180 deg rotation - cart. axis [0,1,-1]  

 cryst.   s(22) = (     0          0          1      )    f =(  0.0000000 )
                  (     0          1          0      )       (  0.0000000 )
                  (     1          0          0      )       (  0.0000000 )

 cart.    s(22) = (  1.0000000  0.0000000  0.0000000 )    f =(  0.0000000 )
                  (  0.0000000  0.0000000  1.0000000 )       (  0.0000000 )
                  (  0.0000000  1.0000000  0.0000000 )       (  0.0000000 )


      isym = 23     inv.  90 deg rotation - cart. axis [-1,0,0]  

 cryst.   s(23) = (     0          0         -1      )    f =(  0.0000000 )
                  (     1          0         -1      )       (  0.0000000 )
                  (     0          1         -1      )       (  0.0000000 )

 cart.    s(23) = ( -1.0000000  0.0000000  0.0000000 )    f =(  0.0000000 )
                  (  0.0000000  0.0000000 -1.0000000 )       (  0.0000000 )
                  (  0.0000000  1.0000000  0.0000000 )       (  0.0000000 )


      isym = 24     inv.  90 deg rotation - cart. axis [1,0,0]   

 cryst.   s(24) = (    -1          1          0      )    f =(  0.0000000 )
                  (    -1          0          1      )       (  0.0000000 )
                  (    -1          0          0      )       (  0.0000000 )

 cart.    s(24) = ( -1.0000000  0.0000000  0.0000000 )    f =(  0.0000000 )
                  (  0.0000000  0.0000000  1.0000000 )       (  0.0000000 )
                  (  0.0000000 -1.0000000  0.0000000 )       (  0.0000000 )


     point group T_d (-43m) 
     there are  5 classes
     the character table:

       E     8C3   3C2   6S4   6s_d 
A_1    1.00  1.00  1.00  1.00  1.00
A_2    1.00  1.00  1.00 -1.00 -1.00
E      2.00 -1.00  2.00  0.00  0.00
T_1    3.00  0.00 -1.00  1.00 -1.00
T_2    3.00  0.00 -1.00 -1.00  1.00

     the symmetry operations in each class:
     E        1
     3C2      2    3    4
     8C3      5    7    8    6   12    9   10   11
     6s_d    13   14   17   18   21   22
     6S4     15   16   20   19   23   24

   Cartesian axes

     site n.     atom                  positions (alat units)
         1           Si  tau(   1) = (   0.0000000   0.0000000   0.0000000  )
         2           Si  tau(   2) = (   0.2500000   0.2500000   0.2500000  )

   Crystallographic axes

     site n.     atom                  positions (cryst. coord.)
         1           Si  tau(   1) = (  0.0000000  0.0000000  0.0000000  )
         2           Si  tau(   2) = ( -0.2500000  0.7500000 -0.2500000  )

     number of k points=    10
                       cart. coord. in units 2pi/alat
        k(    1) = (  -0.1250000   0.1250000   0.1250000), wk =   0.0625000
        k(    2) = (  -0.3750000   0.3750000  -0.1250000), wk =   0.1875000
        k(    3) = (   0.3750000  -0.3750000   0.6250000), wk =   0.1875000
        k(    4) = (   0.1250000  -0.1250000   0.3750000), wk =   0.1875000
        k(    5) = (  -0.1250000   0.6250000   0.1250000), wk =   0.1875000
        k(    6) = (   0.6250000  -0.1250000   0.8750000), wk =   0.3750000
        k(    7) = (   0.3750000   0.1250000   0.6250000), wk =   0.3750000
        k(    8) = (  -0.1250000  -0.8750000   0.1250000), wk =   0.1875000
        k(    9) = (  -0.3750000   0.3750000   0.3750000), wk =   0.0625000
        k(   10) = (   0.3750000  -0.3750000   1.1250000), wk =   0.1875000

                       cryst. coord.
        k(    1) = (   0.1250000   0.1250000   0.1250000), wk =   0.0625000
        k(    2) = (   0.1250000   0.1250000   0.3750000), wk =   0.1875000
        k(    3) = (   0.1250000   0.1250000  -0.3750000), wk =   0.1875000
        k(    4) = (   0.1250000   0.1250000  -0.1250000), wk =   0.1875000
        k(    5) = (   0.1250000   0.3750000   0.3750000), wk =   0.1875000
        k(    6) = (   0.1250000   0.3750000  -0.3750000), wk =   0.3750000
        k(    7) = (   0.1250000   0.3750000  -0.1250000), wk =   0.3750000
        k(    8) = (   0.1250000  -0.3750000  -0.3750000), wk =   0.1875000
        k(    9) = (   0.3750000   0.3750000   0.3750000), wk =   0.0625000
        k(   10) = (   0.3750000   0.3750000  -0.3750000), wk =   0.1875000

     Dense  grid:     4477 G-vectors     FFT dimensions: (  24,  24,  24)

     Largest allocated arrays     est. size (Mb)     dimensions
        Kohn-Sham Wavefunctions         0.09 Mb     (    560,   10)
        NL pseudopotentials             0.07 Mb     (    560,    8)
        Each V/rho on FFT grid          0.21 Mb     (  13824)
        Each G-vector array             0.03 Mb     (   4477)
        G-vector shells                 0.00 Mb     (     89)
     Largest temporary arrays     est. size (Mb)     dimensions
        Auxiliary wavefunctions         0.34 Mb     (    560,   40)
        Each subspace H/S matrix        0.02 Mb     (  40,  40)
        Each <psi_i|beta_j> matrix      0.00 Mb     (      8,   10)
        Arrays for rho mixing           1.69 Mb     (  13824,   8)

     Initial potential from superposition of free atoms

     starting charge    7.99901, renormalised to    8.00000
     Starting wfc are    8 atomic +    2 random wfc

     total cpu time spent up to now is        0.8 secs

     per-process dynamical memory:     5.3 Mb

     Self-consistent Calculation

     iteration #  1     ecut=    25.00 Ry     beta=0.70
     Davidson diagonalization with overlap
     ethr =  1.00E-02,  avg # of iterations =  5.7

     Threshold (ethr) on eigenvalues was too large:
     Diagonalizing with lowered threshold

     Davidson diagonalization with overlap
     ethr =  8.05E-04,  avg # of iterations =  2.5

     total cpu time spent up to now is        2.9 secs

     total energy              =     -15.84714890 Ry
     Harris-Foulkes estimate   =     -15.86897893 Ry
     estimated scf accuracy    <       0.06368861 Ry

     iteration #  2     ecut=    25.00 Ry     beta=0.70
     Davidson diagonalization with overlap
     ethr =  7.96E-04,  avg # of iterations =  1.7

     total cpu time spent up to now is        3.5 secs

     total energy              =     -15.85109534 Ry
     Harris-Foulkes estimate   =     -15.85129089 Ry
     estimated scf accuracy    <       0.00174812 Ry

     iteration #  3     ecut=    25.00 Ry     beta=0.70
     Davidson diagonalization with overlap
     ethr =  2.19E-05,  avg # of iterations =  3.5

     total cpu time spent up to now is        4.3 secs

     total energy              =     -15.85115002 Ry
     Harris-Foulkes estimate   =     -15.85115425 Ry
     estimated scf accuracy    <       0.00005934 Ry

     iteration #  4     ecut=    25.00 Ry     beta=0.70
     Davidson diagonalization with overlap
     ethr =  7.42E-07,  avg # of iterations =  2.7

     total cpu time spent up to now is        5.1 secs

     total energy              =     -15.85115291 Ry
     Harris-Foulkes estimate   =     -15.85115291 Ry
     estimated scf accuracy    <       0.00000006 Ry

     iteration #  5     ecut=    25.00 Ry     beta=0.70
     Davidson diagonalization with overlap
     ethr =  7.85E-10,  avg # of iterations =  6.6

     total cpu time spent up to now is        6.5 secs

     End of self-consistent calculation

          k =-0.1250 0.1250 0.1250 (   552 PWs)   bands (ev):

    -5.5947   4.6831   5.9914   5.9914   8.8279   9.2935   9.2935  11.1134
    13.5701  13.5701

     occupation numbers 
     0.0625   0.0625   0.0625   0.0625   0.0000   0.0000   0.0000   0.0000
     0.0000   0.0000

          k =-0.3750 0.3750-0.1250 (   557 PWs)   bands (ev):

    -4.5246   1.6246   3.9240   5.5004   9.0497   9.9828  10.1381  12.6035
    12.7712  16.0736

     occupation numbers 
     0.1875   0.1875   0.1875   0.1875   0.0000   0.0000   0.0000   0.0000
     0.0000   0.0000

          k = 0.3750-0.3750 0.6250 (   560 PWs)   bands (ev):

    -3.3150  -0.5591   3.9692   4.6915   8.4837   9.8076  10.3964  13.6648
    15.2283  16.8232

     occupation numbers 
     0.1875   0.1875   0.1875   0.1875   0.0000   0.0000   0.0000   0.0000
     0.0000   0.0000

          k = 0.1250-0.1250 0.3750 (   556 PWs)   bands (ev):

    -5.0459   3.0541   4.9358   5.0270   8.4157  10.0620  10.7925  11.0189
    13.8691  14.5399

     occupation numbers 
     0.1875   0.1875   0.1875   0.1875   0.0000   0.0000   0.0000   0.0000
     0.0000   0.0000

          k =-0.1250 0.6250 0.1250 (   555 PWs)   bands (ev):

    -3.9727   1.3467   3.5485   4.0262   7.5831   9.1359  12.3406  12.6049
    16.3544  16.5432

     occupation numbers 
     0.1875   0.1875   0.1875   0.1875   0.0000   0.0000   0.0000   0.0000
     0.0000   0.0000

          k = 0.6250-0.1250 0.8750 (   552 PWs)   bands (ev):

    -2.2477  -0.6726   2.1049   3.2413   8.6340  10.5383  11.6050  13.7694
    14.7447  17.4267

     occupation numbers 
     0.3750   0.3750   0.3750   0.3750   0.0000   0.0000   0.0000   0.0000
     0.0000   0.0000

          k = 0.3750 0.1250 0.6250 (   557 PWs)   bands (ev):

    -3.5319   0.4058   2.8869   4.3088   9.1481   9.8413  11.3150  12.2604
    15.3580  16.0443

     occupation numbers 
     0.3750   0.3750   0.3750   0.3750   0.0000   0.0000   0.0000   0.0000
     0.0000   0.0000

          k =-0.1250-0.8750 0.1250 (   558 PWs)   bands (ev):

    -2.4391  -0.5631   2.7525   3.5411   7.1030   8.1990  14.6167  14.6977
    17.0949  17.1515

     occupation numbers 
     0.1875   0.1875   0.1875   0.1875   0.0000   0.0000   0.0000   0.0000
     0.0000   0.0000

          k =-0.3750 0.3750 0.3750 (   556 PWs)   bands (ev):

    -4.0664   0.2594   5.1801   5.1801   7.9990   9.7394   9.7394  14.0658
    14.9185  14.9185

     occupation numbers 
     0.0625   0.0625   0.0625   0.0625   0.0000   0.0000   0.0000   0.0000
     0.0000   0.0000

          k = 0.3750-0.3750 1.1250 (   553 PWs)   bands (ev):

    -2.8016  -0.4098   2.1889   4.3584   8.0868  11.7555  11.8033  13.2824
    14.3045  14.3470

     occupation numbers 
     0.1875   0.1875   0.1875   0.1875   0.0000   0.0000   0.0000   0.0000
     0.0000   0.0000

     highest occupied, lowest unoccupied level (ev):     5.9914    7.1030

!    total energy              =     -15.85115323 Ry
     Harris-Foulkes estimate   =     -15.85115323 Ry
     estimated scf accuracy    <          6.2E-09 Ry

     The total energy is the sum of the following terms:

     one-electron contribution =       4.82490093 Ry
     hartree contribution      =       1.07430036 Ry
     xc contribution           =      -4.82238263 Ry
     ewald contribution        =     -16.92797188 Ry

     convergence has been achieved in   5 iterations

     Forces acting on atoms (Ry/au):

     atom    1 type  1   force =    -0.00000000   -0.00000000   -0.00000000
     atom    2 type  1   force =     0.00000000    0.00000000    0.00000000
     The non-local contrib.  to forces
     atom    1 type  1   force =     0.00000000    0.00000000    0.00000000
     atom    2 type  1   force =     0.00000000    0.00000000    0.00000000
     The ionic contribution  to forces
     atom    1 type  1   force =     0.00000000   -0.00000000   -0.00000000
     atom    2 type  1   force =    -0.00000000   -0.00000000   -0.00000000
     The local contribution  to forces
     atom    1 type  1   force =    -0.00000000    0.00000000    0.00000000
     atom    2 type  1   force =    -0.00000000    0.00000000   -0.00000000
     The core correction contribution to forces
     atom    1 type  1   force =     0.00000000    0.00000000    0.00000000
     atom    2 type  1   force =     0.00000000    0.00000000    0.00000000
     The Hubbard contrib.    to forces
     atom    1 type  1   force =     0.00000000    0.00000000    0.00000000
     atom    2 type  1   force =     0.00000000    0.00000000    0.00000000
     The SCF correction term to forces
     atom    1 type  1   force =    -0.00000000    0.00000000   -0.00000000
     atom    2 type  1   force =    -0.00000000    0.00000000    0.00000000

     Total force =     0.000000     Total SCF correction =     0.000000


     entering subroutine stress ...

          total   stress  (Ry/bohr**3)                   (kbar)     P=    4.79
   0.00003258   0.00000000   0.00000000          4.79      0.00      0.00
   0.00000000   0.00003258  -0.00000000          0.00      4.79     -0.00
   0.00000000  -0.00000000   0.00003258          0.00     -0.00      4.79

     kinetic stress (kbar)   2329.62      0.00      0.00
                                0.00   2329.62     -0.00
                                0.00     -0.00   2329.62

     local   stress (kbar)  -1438.42     -0.00     -0.00
                               -0.00  -1438.42     -0.00
                               -0.00     -0.00  -1438.42

     nonloc. stress (kbar)   2875.37     -0.00      0.00
                               -0.00   2875.37      0.00
                                0.00      0.00   2875.37

     hartree stress (kbar)    199.56      0.00      0.00
                                0.00    199.56      0.00
                                0.00      0.00    199.56

     exc-cor stress (kbar)   -816.89      0.00      0.00
                                0.00   -816.89      0.00
                                0.00      0.00   -816.89

     corecor stress (kbar)      0.00      0.00      0.00
                                0.00      0.00      0.00
                                0.00      0.00      0.00

     ewald   stress (kbar)  -3144.44      0.00      0.00
                                0.00  -3144.44      0.00
                                0.00      0.00  -3144.44

     hubbard stress (kbar)      0.00      0.00      0.00
                                0.00      0.00      0.00
                                0.00      0.00      0.00

     london  stress (kbar)      0.00      0.00      0.00
                                0.00      0.00      0.00
                                0.00      0.00      0.00

     dft-nl  stress (kbar)      0.00      0.00      0.00
                                0.00      0.00      0.00
                                0.00      0.00      0.00



     Writing output data file Si_e25_k4.save

     init_run     :      0.34s CPU      0.52s WALL (       1 calls)
     electrons    :      4.58s CPU      5.75s WALL (       1 calls)
     forces       :      0.02s CPU      0.03s WALL (       1 calls)
     stress       :      0.11s CPU      0.13s WALL (       1 calls)

     Called by init_run:
     wfcinit      :      0.20s CPU      0.27s WALL (       1 calls)
     potinit      :      0.01s CPU      0.01s WALL (       1 calls)

     Called by electrons:
     c_bands      :      4.03s CPU      5.10s WALL (       6 calls)
     sum_band     :      0.50s CPU      0.55s WALL (       6 calls)
     v_of_rho     :      0.03s CPU      0.03s WALL (       6 calls)
     v_h          :      0.01s CPU      0.01s WALL (       6 calls)
     v_xc         :      0.02s CPU      0.02s WALL (       6 calls)
     mix_rho      :      0.02s CPU      0.03s WALL (       6 calls)

     Called by c_bands:
     init_us_2    :      0.06s CPU      0.07s WALL (     150 calls)
     cegterg      :      3.97s CPU      5.02s WALL (      60 calls)

     Called by sum_band:

     Called by *egterg:
     h_psi        :      3.04s CPU      3.82s WALL (     297 calls)
     g_psi        :      0.04s CPU      0.03s WALL (     227 calls)
     cdiaghg      :      0.27s CPU      0.34s WALL (     277 calls)
     cegterg:over :      0.30s CPU      0.42s WALL (     227 calls)
     cegterg:upda :      0.22s CPU      0.33s WALL (     227 calls)
     cegterg:last :      0.12s CPU      0.15s WALL (      78 calls)

     Called by h_psi:
     h_psi:vloc   :      2.80s CPU      3.45s WALL (     297 calls)
     h_psi:vnl    :      0.22s CPU      0.35s WALL (     297 calls)
     add_vuspsi   :      0.12s CPU      0.14s WALL (     297 calls)

     General routines
     calbec       :      0.12s CPU      0.21s WALL (     317 calls)
     fft          :      0.03s CPU      0.08s WALL (      30 calls)
     fftw         :      2.71s CPU      3.38s WALL (    4388 calls)
     davcio       :      0.04s CPU      0.05s WALL (     220 calls)

     Parallel routines

     PWSCF        :     5.26s CPU         6.90s WALL


   This run was terminated on:  14:20: 7  27Mar2012            

=------------------------------------------------------------------------------=
   JOB DONE.
=------------------------------------------------------------------------------=
