<PP_INFO>
Generated using "atomic" code by A. Dal Corso  (espresso distribution)     
Author: anonymous   Generation date: 18Dec2005                             
Sb                                                                         
    2        The Pseudo was generated with a Fully-Relativistic Calculation
    0 2.2000000E+00    L component and cutoff radius for Local Potential
nl pn  l   occ               Rcut            Rcut US             E pseu
5P  2  1  2.00      2.40000000000      2.40000000000     -0.38958224190
5P  2  1  1.00      2.50000000000      2.50000000000     -0.34375058582
5D  3  2  0.00      2.80000000000      2.80000000000     -0.94832563115
5D  3  2  0.00      2.80000000000      2.80000000000      0.50000000000
5S  1  0  2.00      2.20000000000      2.20000000000     -0.94832173092
</PP_INFO>


<PP_HEADER>
   0                   Version Number
  Sb                   Element
   NC                  Norm - Conserving pseudopotential
    T                  Nonlinear Core Correction
 SLA  PZ   NOGX NOGC   PZ   Exchange-Correlation functional
    5.00000000000      Z valence
  -11.18181151076      Total energy
  0.0000000  0.0000000 Suggested cutoff for wfc and rho
    2                  Max angular momentum component
 1243                  Number of points in mesh
    3    4             Number of Wavefunctions, Number of Projectors
 Wavefunctions         nl  l   occ
                       5P  1  2.00
                       5P  1  1.00
                       5S  0  2.00
</PP_HEADER>


<PP_MESH>
  <PP_R>
  1.78800385403E-05  1.81049417386E-05  1.83326738709E-05  1.85632705208E-05
  1.87967677195E-05  1.90332019514E-05  1.92726101598E-05  1.95150297527E-05
  1.97604986088E-05  2.00090550830E-05  2.02607380127E-05  2.05155867240E-05
  2.07736410374E-05  2.10349412745E-05  2.12995282640E-05  2.15674433481E-05
  2.18387283891E-05  2.21134257759E-05  2.23915784304E-05  2.26732298146E-05
  2.29584239371E-05  2.32472053600E-05  2.35396192061E-05  2.38357111656E-05
  2.41355275034E-05  2.44391150665E-05  2.47465212911E-05  2.50577942099E-05
  2.53729824601E-05  2.56921352904E-05  2.60153025692E-05  2.63425347918E-05
  2.66738830892E-05  2.70093992350E-05  2.73491356544E-05  2.76931454319E-05
  2.80414823198E-05  2.83942007462E-05  2.87513558244E-05  2.91130033603E-05
  2.94791998623E-05  2.98500025492E-05  3.02254693598E-05  3.06056589614E-05
  3.09906307595E-05  3.13804449068E-05  3.17751623123E-05  3.21748446517E-05
  3.25795543760E-05  3.29893547219E-05  3.34043097216E-05  3.38244842127E-05
  3.42499438483E-05  3.46807551072E-05  3.51169853047E-05  3.55587026026E-05
  3.60059760202E-05  3.64588754447E-05  3.69174716427E-05  3.73818362708E-05
  3.78520418868E-05  3.83281619614E-05  3.88102708893E-05  3.92984440009E-05
  3.97927575744E-05  4.02932888472E-05  4.08001160284E-05  4.13133183107E-05
  4.18329758831E-05  4.23591699430E-05  4.28919827095E-05  4.34314974355E-05
  4.39777984213E-05  4.45309710276E-05  4.50911016887E-05  4.56582779262E-05
  4.62325883626E-05  4.68141227349E-05  4.74029719091E-05  4.79992278941E-05
  4.86029838562E-05  4.92143341334E-05  4.98333742504E-05  5.04602009335E-05
  5.10949121257E-05  5.17376070018E-05  5.23883859843E-05  5.30473507587E-05
  5.37146042896E-05  5.43902508367E-05  5.50743959711E-05  5.57671465919E-05
  5.64686109429E-05  5.71788986292E-05  5.78981206348E-05  5.86263893395E-05
  5.93638185368E-05  6.01105234515E-05  6.08666207578E-05  6.16322285975E-05
  6.24074665982E-05  6.31924558926E-05  6.39873191368E-05  6.47921805298E-05
  6.56071658328E-05  6.64324023889E-05  6.72680191431E-05  6.81141466621E-05
  6.89709171551E-05  6.98384644943E-05  7.07169242356E-05  7.16064336402E-05
  7.25071316957E-05  7.34191591381E-05  7.43426584735E-05  7.52777740005E-05
  7.62246518329E-05  7.71834399221E-05  7.81542880809E-05  7.91373480063E-05
  8.01327733032E-05  8.11407195090E-05  8.21613441173E-05  8.31948066028E-05
  8.42412684461E-05  8.53008931590E-05  8.63738463100E-05  8.74602955502E-05
  8.85604106395E-05  8.96743634731E-05  9.08023281085E-05  9.19444807924E-05
  9.31009999885E-05  9.42720664052E-05  9.54578630241E-05  9.66585751283E-05
  9.78743903316E-05  9.91054986074E-05  1.00352092319E-04  1.01614366249E-04
  1.02892517631E-04  1.04186746178E-04  1.05497254116E-04  1.06824246214E-04
  1.08167929819E-04  1.09528514882E-04  1.10906213999E-04  1.12301242437E-04
  1.13713818173E-04  1.15144161925E-04  1.16592497186E-04  1.18059050262E-04
  1.19544050304E-04  1.21047729348E-04  1.22570322346E-04  1.24112067206E-04
  1.25673204829E-04  1.27253979145E-04  1.28854637155E-04  1.30475428965E-04
  1.32116607825E-04  1.33778430174E-04  1.35461155676E-04  1.37165047258E-04
  1.38890371158E-04  1.40637396961E-04  1.42406397643E-04  1.44197649615E-04
  1.46011432763E-04  1.47848030495E-04  1.49707729782E-04  1.51590821206E-04
  1.53497599004E-04  1.55428361115E-04  1.57383409223E-04  1.59363048810E-04
  1.61367589196E-04  1.63397343597E-04  1.65452629166E-04  1.67533767044E-04
  1.69641082414E-04  1.71774904549E-04  1.73935566861E-04  1.76123406960E-04
  1.78338766700E-04  1.80581992235E-04  1.82853434073E-04  1.85153447133E-04
  1.87482390795E-04  1.89840628962E-04  1.92228530114E-04  1.94646467365E-04
  1.97094818522E-04  1.99573966146E-04  2.02084297608E-04  2.04626205152E-04
  2.07200085958E-04  2.09806342198E-04  2.12445381107E-04  2.15117615038E-04
  2.17823461534E-04  2.20563343389E-04  2.23337688716E-04  2.26146931011E-04
  2.28991509223E-04  2.31871867825E-04  2.34788456879E-04  2.37741732106E-04
  2.40732154962E-04  2.43760192708E-04  2.46826318479E-04  2.49931011365E-04
  2.53074756480E-04  2.56258045041E-04  2.59481374442E-04  2.62745248336E-04
  2.66050176710E-04  2.69396675965E-04  2.72785268999E-04  2.76216485286E-04
  2.79690860961E-04  2.83208938902E-04  2.86771268816E-04  2.90378407324E-04
  2.94030918049E-04  2.97729371703E-04  3.01474346177E-04  3.05266426631E-04
  3.09106205585E-04  3.12994283013E-04  3.16931266435E-04  3.20917771011E-04
  3.24954419642E-04  3.29041843063E-04  3.33180679941E-04  3.37371576977E-04
  3.41615189010E-04  3.45912179110E-04  3.50263218692E-04  3.54668987615E-04
  3.59130174289E-04  3.63647475783E-04  3.68221597935E-04  3.72853255461E-04
  3.77543172066E-04  3.82292080561E-04  3.87100722970E-04  3.91969850656E-04
  3.96900224428E-04  4.01892614667E-04  4.06947801445E-04  4.12066574645E-04
  4.17249734086E-04  4.22498089646E-04  4.27812461393E-04  4.33193679707E-04
  4.38642585415E-04  4.44160029919E-04  4.49746875332E-04  4.55403994609E-04
  4.61132271686E-04  4.66932601620E-04  4.72805890722E-04  4.78753056706E-04
  4.84775028830E-04  4.90872748038E-04  4.97047167112E-04  5.03299250817E-04
  5.09629976054E-04  5.16040332011E-04  5.22531320321E-04  5.29103955212E-04
  5.35759263672E-04  5.42498285608E-04  5.49322074004E-04  5.56231695092E-04
  5.63228228514E-04  5.70312767493E-04  5.77486419002E-04  5.84750303939E-04
  5.92105557300E-04  5.99553328360E-04  6.07094780847E-04  6.14731093128E-04
  6.22463458393E-04  6.30293084841E-04  6.38221195865E-04  6.46249030249E-04
  6.54377842359E-04  6.62608902339E-04  6.70943496307E-04  6.79382926562E-04
  6.87928511781E-04  6.96581587230E-04  7.05343504969E-04  7.14215634066E-04
  7.23199360809E-04  7.32296088923E-04  7.41507239791E-04  7.50834252673E-04
  7.60278584936E-04  7.69841712274E-04  7.79525128946E-04  7.89330348005E-04
  7.99258901537E-04  8.09312340898E-04  8.19492236959E-04  8.29800180350E-04
  8.40237781707E-04  8.50806671926E-04  8.61508502420E-04  8.72344945369E-04
  8.83317693991E-04  8.94428462800E-04  9.05678987876E-04  9.17071027136E-04
  9.28606360611E-04  9.40286790718E-04  9.52114142549E-04  9.64090264152E-04
  9.76217026821E-04  9.88496325386E-04  1.00093007851E-03  1.01352022900E-03
  1.02626874409E-03  1.03917761575E-03  1.05224886103E-03  1.06548452234E-03
  1.07888666777E-03  1.09245739144E-03  1.10619881380E-03  1.12011308197E-03
  1.13420237009E-03  1.14846887964E-03  1.16291483979E-03  1.17754250775E-03
  1.19235416912E-03  1.20735213826E-03  1.22253875862E-03  1.23791640315E-03
  1.25348747464E-03  1.26925440610E-03  1.28521966114E-03  1.30138573436E-03
  1.31775515176E-03  1.33433047108E-03  1.35111428225E-03  1.36810920777E-03
  1.38531790315E-03  1.40274305726E-03  1.42038739283E-03  1.43825366682E-03
  1.45634467087E-03  1.47466323174E-03  1.49321221174E-03  1.51199450918E-03
  1.53101305885E-03  1.55027083241E-03  1.56977083896E-03  1.58951612538E-03
  1.60950977694E-03  1.62975491767E-03  1.65025471093E-03  1.67101235984E-03
  1.69203110783E-03  1.71331423913E-03  1.73486507926E-03  1.75668699559E-03
  1.77878339783E-03  1.80115773860E-03  1.82381351393E-03  1.84675426384E-03
  1.86998357285E-03  1.89350507061E-03  1.91732243238E-03  1.94143937968E-03
  1.96585968084E-03  1.99058715157E-03  2.01562565559E-03  2.04097910523E-03
  2.06665146200E-03  2.09264673726E-03  2.11896899284E-03  2.14562234163E-03
  2.17261094828E-03  2.19993902981E-03  2.22761085629E-03  2.25563075150E-03
  2.28400309360E-03  2.31273231583E-03  2.34182290719E-03  2.37127941315E-03
  2.40110643633E-03  2.43130863729E-03  2.46189073516E-03  2.49285750847E-03
  2.52421379584E-03  2.55596449675E-03  2.58811457231E-03  2.62066904604E-03
  2.65363300464E-03  2.68701159879E-03  2.72081004398E-03  2.75503362127E-03
  2.78968767817E-03  2.82477762944E-03  2.86030895797E-03  2.89628721558E-03
  2.93271802397E-03  2.96960707552E-03  3.00696013421E-03  3.04478303655E-03
  3.08308169242E-03  3.12186208609E-03  3.16113027705E-03  3.20089240106E-03
  3.24115467101E-03  3.28192337798E-03  3.32320489215E-03  3.36500566384E-03
  3.40733222452E-03  3.45019118779E-03  3.49358925045E-03  3.53753319354E-03
  3.58202988339E-03  3.62708627269E-03  3.67270940161E-03  3.71890639884E-03
  3.76568448276E-03  3.81305096254E-03  3.86101323930E-03  3.90957880723E-03
  3.95875525480E-03  4.00855026593E-03  4.05897162120E-03  4.11002719904E-03
  4.16172497699E-03  4.21407303294E-03  4.26707954638E-03  4.32075279967E-03
  4.37510117938E-03  4.43013317755E-03  4.48585739304E-03  4.54228253288E-03
  4.59941741360E-03  4.65727096266E-03  4.71585221977E-03  4.77517033839E-03
  4.83523458709E-03  4.89605435103E-03  4.95763913343E-03  5.01999855702E-03
  5.08314236561E-03  5.14708042553E-03  5.21182272723E-03  5.27737938685E-03
  5.34376064773E-03  5.41097688208E-03  5.47903859258E-03  5.54795641400E-03
  5.61774111491E-03  5.68840359929E-03  5.75995490830E-03  5.83240622199E-03
  5.90576886102E-03  5.98005428845E-03  6.05527411153E-03  6.13144008351E-03
  6.20856410547E-03  6.28665822821E-03  6.36573465409E-03  6.44580573895E-03
  6.52688399408E-03  6.60898208811E-03  6.69211284904E-03  6.77628926622E-03
  6.86152449238E-03  6.94783184570E-03  7.03522481188E-03  7.12371704626E-03
  7.21332237591E-03  7.30405480186E-03  7.39592850124E-03  7.48895782949E-03
  7.58315732264E-03  7.67854169955E-03  7.77512586422E-03  7.87292490812E-03
  7.97195411256E-03  8.07222895105E-03  8.17376509174E-03  8.27657839985E-03
  8.38068494017E-03  8.48610097957E-03  8.59284298951E-03  8.70092764865E-03
  8.81037184544E-03  8.92119268075E-03  9.03340747057E-03  9.14703374868E-03
  9.26208926943E-03  9.37859201047E-03  9.49656017560E-03  9.61601219757E-03
  9.73696674101E-03  9.85944270531E-03  9.98345922760E-03  1.01090356857E-02
  1.02361917012E-02  1.03649471425E-02  1.04953221278E-02  1.06273370286E-02
  1.07610124724E-02  1.08963693463E-02  1.10334288001E-02  1.11722122496E-02
  1.13127413800E-02  1.14550381492E-02  1.15991247915E-02  1.17450238206E-02
  1.18927580336E-02  1.20423505142E-02  1.21938246366E-02  1.23472040689E-02
  1.25025127769E-02  1.26597750280E-02  1.28190153947E-02  1.29802587586E-02
  1.31435303144E-02  1.33088555736E-02  1.34762603685E-02  1.36457708564E-02
  1.38174135239E-02  1.39912151903E-02  1.41672030126E-02  1.43454044891E-02
  1.45258474643E-02  1.47085601328E-02  1.48935710436E-02  1.50809091053E-02
  1.52706035896E-02  1.54626841369E-02  1.56571807600E-02  1.58541238494E-02
  1.60535441780E-02  1.62554729055E-02  1.64599415837E-02  1.66669821613E-02
  1.68766269887E-02  1.70889088235E-02  1.73038608350E-02  1.75215166100E-02
  1.77419101576E-02  1.79650759147E-02  1.81910487515E-02  1.84198639767E-02
  1.86515573432E-02  1.88861650533E-02  1.91237237653E-02  1.93642705979E-02
  1.96078431373E-02  1.98544794420E-02  2.01042180495E-02  2.03570979820E-02
  2.06131587525E-02  2.08724403709E-02  2.11349833507E-02  2.14008287146E-02
  2.16700180015E-02  2.19425932728E-02  2.22185971190E-02  2.24980726661E-02
  2.27810635829E-02  2.30676140872E-02  2.33577689532E-02  2.36515735181E-02
  2.39490736894E-02  2.42503159523E-02  2.45553473763E-02  2.48642156233E-02
  2.51769689547E-02  2.54936562386E-02  2.58143269582E-02  2.61390312189E-02
  2.64678197564E-02  2.68007439446E-02  2.71378558035E-02  2.74792080077E-02
  2.78248538940E-02  2.81748474703E-02  2.85292434239E-02  2.88880971298E-02
  2.92514646596E-02  2.96194027903E-02  2.99919690130E-02  3.03692215418E-02
  3.07512193233E-02  3.11380220454E-02  3.15296901468E-02  3.19262848264E-02
  3.23278680529E-02  3.27345025747E-02  3.31462519290E-02  3.35631804526E-02
  3.39853532915E-02  3.44128364110E-02  3.48456966062E-02  3.52840015123E-02
  3.57278196155E-02  3.61772202632E-02  3.66322736751E-02  3.70930509544E-02
  3.75596240983E-02  3.80320660099E-02  3.85104505092E-02  3.89948523448E-02
  3.94853472053E-02  3.99820117317E-02  4.04849235288E-02  4.09941611775E-02
  4.15098042473E-02  4.20319333085E-02  4.25606299448E-02  4.30959767661E-02
  4.36380574214E-02  4.41869566120E-02  4.47427601045E-02  4.53055547443E-02
  4.58754284691E-02  4.64524703230E-02  4.70367704699E-02  4.76284202079E-02
  4.82275119835E-02  4.88341394059E-02  4.94483972619E-02  5.00703815306E-02
  5.07001893983E-02  5.13379192738E-02  5.19836708036E-02  5.26375448877E-02
  5.32996436953E-02  5.39700706806E-02  5.46489305993E-02  5.53363295246E-02
  5.60323748640E-02  5.67371753759E-02  5.74508411869E-02  5.81734838088E-02
  5.89052161558E-02  5.96461525627E-02  6.03964088023E-02  6.11561021037E-02
  6.19253511704E-02  6.27042761992E-02  6.34929988988E-02  6.42916425086E-02
  6.51003318184E-02  6.59191931874E-02  6.67483545645E-02  6.75879455078E-02
  6.84380972051E-02  6.92989424944E-02  7.01706158843E-02  7.10532535758E-02
  7.19469934827E-02  7.28519752537E-02  7.37683402941E-02  7.46962317877E-02
  7.56357947195E-02  7.65871758982E-02  7.75505239788E-02  7.85259894867E-02
  7.95137248401E-02  8.05138843748E-02  8.15266243678E-02  8.25521030616E-02
  8.35904806896E-02  8.46419195002E-02  8.57065837829E-02  8.67846398938E-02
  8.78762562811E-02  8.89816035123E-02  9.01008543001E-02  9.12341835297E-02
  9.23817682861E-02  9.35437878817E-02  9.47204238845E-02  9.59118601463E-02
  9.71182828313E-02  9.83398804456E-02  9.95768438663E-02  1.00829366371E-01
  1.02097643670E-01  1.03381873934E-01  1.04682257825E-01  1.05998998532E-01
  1.07332301799E-01  1.08682375955E-01  1.10049431955E-01  1.11433683402E-01
  1.12835346588E-01  1.14254640527E-01  1.15691786987E-01  1.17147010523E-01
  1.18620538518E-01  1.20112601213E-01  1.21623431747E-01  1.23153266190E-01
  1.24702343580E-01  1.26270905966E-01  1.27859198438E-01  1.29467469169E-01
  1.31095969456E-01  1.32744953755E-01  1.34414679724E-01  1.36105408259E-01
  1.37817403541E-01  1.39550933073E-01  1.41306267722E-01  1.43083681763E-01
  1.44883452920E-01  1.46705862412E-01  1.48551194993E-01  1.50419739000E-01
  1.52311786398E-01  1.54227632822E-01  1.56167577628E-01  1.58131923936E-01
  1.60120978678E-01  1.62135052649E-01  1.64174460552E-01  1.66239521048E-01
  1.68330556807E-01  1.70447894559E-01  1.72591865141E-01  1.74762803553E-01
  1.76961049009E-01  1.79186944988E-01  1.81440839292E-01  1.83723084097E-01
  1.86034036007E-01  1.88374056114E-01  1.90743510050E-01  1.93142768048E-01
  1.95572204996E-01  1.98032200500E-01  2.00523138937E-01  2.03045409523E-01
  2.05599406367E-01  2.08185528537E-01  2.10804180119E-01  2.13455770283E-01
  2.16140713346E-01  2.18859428835E-01  2.21612341555E-01  2.24399881654E-01
  2.27222484691E-01  2.30080591703E-01  2.32974649276E-01  2.35905109613E-01
  2.38872430602E-01  2.41877075895E-01  2.44919514973E-01  2.48000223223E-01
  2.51119682013E-01  2.54278378764E-01  2.57476807029E-01  2.60715466569E-01
  2.63994863431E-01  2.67315510028E-01  2.70677925217E-01  2.74082634382E-01
  2.77530169517E-01  2.81021069306E-01  2.84555879208E-01  2.88135151545E-01
  2.91759445586E-01  2.95429327634E-01  2.99145371115E-01  3.02908156669E-01
  3.06718272239E-01  3.10576313163E-01  3.14482882268E-01  3.18438589963E-01
  3.22444054335E-01  3.26499901247E-01  3.30606764433E-01  3.34765285599E-01
  3.38976114521E-01  3.43239909151E-01  3.47557335715E-01  3.51929068820E-01
  3.56355791558E-01  3.60838195613E-01  3.65376981371E-01  3.69972858025E-01
  3.74626543691E-01  3.79338765516E-01  3.84110259796E-01  3.88941772085E-01
  3.93834057317E-01  3.98787879922E-01  4.03804013945E-01  4.08883243166E-01
  4.14026361226E-01  4.19234171748E-01  4.24507488461E-01  4.29847135333E-01
  4.35253946695E-01  4.40728767371E-01  4.46272452814E-01  4.51885869236E-01
  4.57569893744E-01  4.63325414479E-01  4.69153330752E-01  4.75054553188E-01
  4.81030003865E-01  4.87080616458E-01  4.93207336389E-01  4.99411120969E-01
  5.05692939553E-01  5.12053773687E-01  5.18494617266E-01  5.25016476683E-01
  5.31620370993E-01  5.38307332068E-01  5.45078404758E-01  5.51934647058E-01
  5.58877130270E-01  5.65906939170E-01  5.73025172181E-01  5.80232941541E-01
  5.87531373478E-01  5.94921608388E-01  6.02404801010E-01  6.09982120607E-01
  6.17654751152E-01  6.25423891508E-01  6.33290755620E-01  6.41256572701E-01
  6.49322587425E-01  6.57490060126E-01  6.65760266985E-01  6.74134500241E-01
  6.82614068384E-01  6.91200296364E-01  6.99894525797E-01  7.08698115173E-01
  7.17612440072E-01  7.26638893375E-01  7.35778885482E-01  7.45033844538E-01
  7.54405216648E-01  7.63894466107E-01  7.73503075631E-01  7.83232546585E-01
  7.93084399217E-01  8.03060172900E-01  8.13161426369E-01  8.23389737966E-01
  8.33746705884E-01  8.44233948421E-01  8.54853104230E-01  8.65605832576E-01
  8.76493813594E-01  8.87518748554E-01  8.98682360124E-01  9.09986392641E-01
  9.21432612384E-01  9.33022807847E-01  9.44758790022E-01  9.56642392679E-01
  9.68675472657E-01  9.80859910149E-01  9.93197608997E-01  1.00569049699E+00
  1.01834052617E+00  1.03114967313E+00  1.04411993933E+00  1.05725335139E+00
  1.07055196143E+00  1.08401784740E+00  1.09765311337E+00  1.11145988986E+00
  1.12544033422E+00  1.13959663093E+00  1.15393099193E+00  1.16844565699E+00
  1.18314289407E+00  1.19802499962E+00  1.21309429903E+00  1.22835314688E+00
  1.24380392741E+00  1.25944905484E+00  1.27529097375E+00  1.29133215946E+00
  1.30757511845E+00  1.32402238871E+00  1.34067654017E+00  1.35754017506E+00
  1.37461592837E+00  1.39190646821E+00  1.40941449627E+00  1.42714274821E+00
  1.44509399411E+00  1.46327103889E+00  1.48167672274E+00  1.50031392160E+00
  1.51918554755E+00  1.53829454935E+00  1.55764391279E+00  1.57723666126E+00
  1.59707585618E+00  1.61716459744E+00  1.63750602396E+00  1.65810331413E+00
  1.67895968632E+00  1.70007839937E+00  1.72146275313E+00  1.74311608895E+00
  1.76504179021E+00  1.78724328283E+00  1.80972403586E+00  1.83248756194E+00
  1.85553741794E+00  1.87887720543E+00  1.90251057131E+00  1.92644120834E+00
  1.95067285572E+00  1.97520929971E+00  2.00005437417E+00  2.02521196119E+00
  2.05068599171E+00  2.07648044608E+00  2.10259935475E+00  2.12904679884E+00
  2.15582691083E+00  2.18294387515E+00  2.21040192890E+00  2.23820536245E+00
  2.26635852014E+00  2.29486580096E+00  2.32373165923E+00  2.35296060530E+00
  2.38255720625E+00  2.41252608661E+00  2.44287192908E+00  2.47359947526E+00
  2.50471352639E+00  2.53621894411E+00  2.56812065119E+00  2.60042363235E+00
  2.63313293500E+00  2.66625367002E+00  2.69979101261E+00  2.73375020303E+00
  2.76813654748E+00  2.80295541890E+00  2.83821225781E+00  2.87391257315E+00
  2.91006194319E+00  2.94666601632E+00  2.98373051201E+00  3.02126122167E+00
  3.05926400954E+00  3.09774481363E+00  3.13670964665E+00  3.17616459694E+00
  3.21611582941E+00  3.25656958652E+00  3.29753218925E+00  3.33901003810E+00
  3.38100961406E+00  3.42353747964E+00  3.46660027993E+00  3.51020474356E+00
  3.55435768383E+00  3.59906599971E+00  3.64433667698E+00  3.69017678927E+00
  3.73659349919E+00  3.78359405945E+00  3.83118581397E+00  3.87937619908E+00
  3.92817274460E+00  3.97758307512E+00  4.02761491107E+00  4.07827607006E+00
  4.12957446797E+00  4.18151812030E+00  4.23411514335E+00  4.28737375549E+00
  4.34130227851E+00  4.39590913885E+00  4.45120286893E+00  4.50719210851E+00
  4.56388560603E+00  4.62129221997E+00  4.67942092021E+00  4.73828078949E+00
  4.79788102479E+00  4.85823093876E+00  4.91933996119E+00  4.98121764051E+00
  5.04387364521E+00  5.10731776543E+00  5.17155991445E+00  5.23661013022E+00
  5.30247857698E+00  5.36917554681E+00  5.43671146124E+00  5.50509687289E+00
  5.57434246714E+00  5.64445906373E+00  5.71545761854E+00  5.78734922522E+00
  5.86014511700E+00  5.93385666838E+00  6.00849539693E+00  6.08407296511E+00
  6.16060118207E+00  6.23809200550E+00  6.31655754350E+00  6.39601005646E+00
  6.47646195901E+00  6.55792582192E+00  6.64041437408E+00  6.72394050449E+00
  6.80851726429E+00  6.89415786876E+00  6.98087569943E+00  7.06868430612E+00
  7.15759740912E+00  7.24762890128E+00  7.33879285020E+00  7.43110350043E+00
  7.52457527571E+00  7.61922278118E+00  7.71506080571E+00  7.81210432419E+00
  7.91036849986E+00  8.00986868670E+00  8.11062043182E+00  8.21263947789E+00
  8.31594176558E+00  8.42054343610E+00  8.52646083365E+00  8.63371050806E+00
  8.74230921730E+00  8.85227393015E+00  8.96362182880E+00  9.07637031160E+00
  9.19053699573E+00  9.30613971997E+00  9.42319654746E+00  9.54172576860E+00
  9.66174590379E+00  9.78327570644E+00  9.90633416582E+00  1.00309405101E+01
  1.01571142092E+01  1.02848749781E+01  1.04142427796E+01  1.05452378277E+01
  1.06778805907E+01  1.08121917943E+01  1.09481924248E+01  1.10859037327E+01
  1.12253472356E+01  1.13665447218E+01  1.15095182538E+01  1.16542901714E+01
  1.18008830955E+01  1.19493199317E+01  1.20996238734E+01  1.22518184059E+01
  1.24059273100E+01  1.25619746655E+01  1.27199848551E+01  1.28799825682E+01
  1.30419928048E+01  1.32060408793E+01  1.33721524245E+01  1.35403533958E+01
  1.37106700748E+01  1.38831290739E+01  1.40577573402E+01  1.42345821597E+01
  1.44136311616E+01  1.45949323227E+01  1.47785139717E+01  1.49644047935E+01
  1.51526338340E+01  1.53432305044E+01  1.55362245858E+01  1.57316462339E+01
  1.59295259837E+01  1.61298947543E+01  1.63327838539E+01  1.65382249841E+01
  1.67462502456E+01  1.69568921428E+01  1.71701835889E+01  1.73861579111E+01
  1.76048488559E+01  1.78262905941E+01  1.80505177265E+01  1.82775652890E+01
  1.85074687583E+01  1.87402640572E+01  1.89759875605E+01  1.92146761004E+01
  1.94563669726E+01  1.97010979418E+01  1.99489072475E+01  2.01998336106E+01
  2.04539162388E+01  2.07111948331E+01  2.09717095936E+01  2.12355012265E+01
  2.15026109496E+01  2.17730804994E+01  2.20469521374E+01  2.23242686564E+01
  2.26050733879E+01  2.28894102081E+01  2.31773235452E+01  2.34688583862E+01
  2.37640602842E+01  2.40629753649E+01  2.43656503344E+01  2.46721324864E+01
  2.49824697093E+01  2.52967104939E+01  2.56149039410E+01  2.59370997689E+01
  2.62633483215E+01  2.65937005756E+01  2.69282081496E+01  2.72669233109E+01
  2.76098989844E+01  2.79571887608E+01  2.83088469049E+01  2.86649283638E+01
  2.90254887762E+01  2.93905844802E+01  2.97602725228E+01  3.01346106686E+01
  3.05136574086E+01  3.08974719696E+01  3.12861143235E+01  3.16796451964E+01
  3.20781260784E+01  3.24816192327E+01  3.28901877062E+01  3.33038953384E+01
  3.37228067721E+01  3.41469874629E+01  3.45765036899E+01  3.50114225660E+01
  3.54518120482E+01  3.58977409480E+01  3.63492789430E+01  3.68064965867E+01
  3.72694653204E+01  3.77382574839E+01  3.82129463269E+01  3.86936060204E+01
  3.91803116687E+01  3.96731393204E+01  4.01721659808E+01  4.06774696239E+01
  4.11891292043E+01  4.17072246700E+01  4.22318369744E+01  4.27630480893E+01
  4.33009410174E+01  4.38455998056E+01  4.43971095581E+01  4.49555564492E+01
  4.55210277375E+01  4.60936117789E+01  4.66733980410E+01  4.72604771165E+01
  4.78549407377E+01  4.84568817908E+01  4.90663943302E+01  4.96835735936E+01
  5.03085160164E+01  5.09413192472E+01  5.15820821627E+01  5.22309048836E+01
  5.28878887896E+01  5.35531365358E+01  5.42267520686E+01  5.49088406417E+01
  5.55995088328E+01  5.62988645604E+01  5.70070171000E+01  5.77240771021E+01
  5.84501566087E+01  5.91853690711E+01  5.99298293679E+01  6.06836538224E+01
  6.14469602213E+01  6.22198678328E+01  6.30024974252E+01  6.37949712860E+01
  6.45974132409E+01  6.54099486730E+01  6.62327045426E+01  6.70658094071E+01
  6.79093934408E+01  6.87635884553E+01  6.96285279205E+01  7.05043469848E+01
  7.13911824967E+01  7.22891730262E+01  7.31984588860E+01  7.41191821539E+01
  7.50514866949E+01  7.59955181833E+01  7.69514241261E+01  7.79193538855E+01
  7.88994587024E+01  7.98918917203E+01  8.08968080088E+01  8.19143645881E+01
  8.29447204535E+01  8.39880366003E+01  8.50444760487E+01  8.61142038695E+01
  8.71973872098E+01  8.82941953193E+01  8.94047995764E+01  9.05293735154E+01
  9.16680928532E+01  9.28211355169E+01  9.39886816720E+01  9.51709137498E+01
  9.63680164765E+01  9.75801769018E+01  9.88075844283E+01
  </PP_R>
  <PP_RAB>
  2.23500481754E-07  2.26311771733E-07  2.29158423386E-07  2.32040881510E-07
  2.34959596494E-07  2.37915024392E-07  2.40907626997E-07  2.43937871909E-07
  2.47006232610E-07  2.50113188537E-07  2.53259225159E-07  2.56444834050E-07
  2.59670512968E-07  2.62936765931E-07  2.66244103300E-07  2.69593041851E-07
  2.72984104864E-07  2.76417822198E-07  2.79894730380E-07  2.83415372682E-07
  2.86980299214E-07  2.90590067000E-07  2.94245240076E-07  2.97946389570E-07
  3.01694093793E-07  3.05488938331E-07  3.09331516138E-07  3.13222427624E-07
  3.17162280751E-07  3.21151691130E-07  3.25191282114E-07  3.29281684898E-07
  3.33423538615E-07  3.37617490438E-07  3.41864195680E-07  3.46164317899E-07
  3.50518528997E-07  3.54927509328E-07  3.59391947805E-07  3.63912542004E-07
  3.68489998279E-07  3.73125031865E-07  3.77818366997E-07  3.82570737018E-07
  3.87382884494E-07  3.92255561334E-07  3.97189528904E-07  4.02185558146E-07
  4.07244429699E-07  4.12366934024E-07  4.17553871520E-07  4.22806052659E-07
  4.28124298103E-07  4.33509438840E-07  4.38962316309E-07  4.44483782533E-07
  4.50074700252E-07  4.55735943059E-07  4.61468395534E-07  4.67272953385E-07
  4.73150523585E-07  4.79102024518E-07  4.85128386116E-07  4.91230550012E-07
  4.97409469680E-07  5.03666110591E-07  5.10001450355E-07  5.16416478884E-07
  5.22912198539E-07  5.29489624288E-07  5.36149783868E-07  5.42893717943E-07
  5.49722480266E-07  5.56637137845E-07  5.63638771109E-07  5.70728474078E-07
  5.77907354532E-07  5.85176534186E-07  5.92537148864E-07  5.99990348677E-07
  6.07537298203E-07  6.15179176667E-07  6.22917178130E-07  6.30752511669E-07
  6.38686401571E-07  6.46720087523E-07  6.54854824804E-07  6.63091884484E-07
  6.71432553620E-07  6.79878135458E-07  6.88429949639E-07  6.97089332399E-07
  7.05857636786E-07  7.14736232865E-07  7.23726507935E-07  7.32829866743E-07
  7.42047731710E-07  7.51381543144E-07  7.60832759473E-07  7.70402857468E-07
  7.80093332478E-07  7.89905698658E-07  7.99841489210E-07  8.09902256622E-07
  8.20089572910E-07  8.30405029861E-07  8.40850239289E-07  8.51426833276E-07
  8.62136464439E-07  8.72980806179E-07  8.83961552945E-07  8.95080420503E-07
  9.06339146197E-07  9.17739489227E-07  9.29283230919E-07  9.40972175006E-07
  9.52808147911E-07  9.64792999027E-07  9.76928601012E-07  9.89216850078E-07
  1.00165966629E-06  1.01425899386E-06  1.02701680147E-06  1.03993508254E-06
  1.05301585558E-06  1.06626116449E-06  1.07967307887E-06  1.09325369438E-06
  1.10700513299E-06  1.12092954341E-06  1.13502910136E-06  1.14930600990E-06
  1.16376249986E-06  1.17840083006E-06  1.19322328780E-06  1.20823218910E-06
  1.22342987914E-06  1.23881873259E-06  1.25440115399E-06  1.27017957812E-06
  1.28615647039E-06  1.30233432722E-06  1.31871567645E-06  1.33530307768E-06
  1.35209912274E-06  1.36910643603E-06  1.38632767499E-06  1.40376553047E-06
  1.42142272717E-06  1.43930202406E-06  1.45740621482E-06  1.47573812827E-06
  1.49430062880E-06  1.51309661685E-06  1.53212902932E-06  1.55140084007E-06
  1.57091506036E-06  1.59067473932E-06  1.61068296444E-06  1.63094286206E-06
  1.65145759782E-06  1.67223037718E-06  1.69326444594E-06  1.71456309072E-06
  1.73612963947E-06  1.75796746201E-06  1.78007997054E-06  1.80247062019E-06
  1.82514290954E-06  1.84810038118E-06  1.87134662227E-06  1.89488526507E-06
  1.91871998756E-06  1.94285451394E-06  1.96729261529E-06  1.99203811012E-06
  2.01709486496E-06  2.04246679497E-06  2.06815786457E-06  2.09417208805E-06
  2.12051353018E-06  2.14718630686E-06  2.17419458577E-06  2.20154258700E-06
  2.22923458375E-06  2.25727490293E-06  2.28566792591E-06  2.31441808916E-06
  2.34352988494E-06  2.37300786203E-06  2.40285662643E-06  2.43308084206E-06
  2.46368523153E-06  2.49467457682E-06  2.52605372010E-06  2.55782756441E-06
  2.59000107447E-06  2.62257927748E-06  2.65556726383E-06  2.68897018797E-06
  2.72279326918E-06  2.75704179237E-06  2.79172110895E-06  2.82683663763E-06
  2.86239386529E-06  2.89839834782E-06  2.93485571098E-06  2.97177165132E-06
  3.00915193703E-06  3.04700240884E-06  3.08532898099E-06  3.12413764206E-06
  3.16343445600E-06  3.20322556301E-06  3.24351718052E-06  3.28431560420E-06
  3.32562720887E-06  3.36745844956E-06  3.40981586248E-06  3.45270606607E-06
  3.49613576201E-06  3.54011173627E-06  3.58464086019E-06  3.62973009155E-06
  3.67538647561E-06  3.72161714628E-06  3.76842932721E-06  3.81583033289E-06
  3.86382756982E-06  3.91242853767E-06  3.96164083043E-06  4.01147213764E-06